# t (s)	mx ()	my ()	mz ()	E_total (J)	MaxAngle (rad)
0	1.0164559e-09	5.925897e-10	0.979536	-2.0725771e-17	0.2662729
2.5158624633252095e-12	5.1851595e-10	-9.547279e-10	0.9714189	-2.068995e-17	0.24263057
5.043404375947216e-12	1.8559579e-09	-2.4032802e-09	0.9637282	-2.061357e-17	0.2326387
7.518128093600254e-12	5.234542e-09	-2.6008102e-09	0.95768946	-2.050402e-17	0.22799273
1.0041017293497298e-11	9.876494e-09	2.6337318e-10	0.9539683	-2.0364287e-17	0.22751756
1.2513108070118103e-11	1.3036973e-08	5.333307e-09	0.95294666	-2.020564e-17	0.2262151
1.5033732076971542e-11	1.3892936e-08	1.2641913e-08	0.95424056	-2.0018628e-17	0.2242559
1.7504342257268632e-11	1.1259204e-08	2.2518408e-08	0.9569367	-1.9797051e-17	0.22165702
2.002401948257823e-11	1.7448474e-09	3.3448394e-08	0.95913446	-1.9508328e-17	0.2156408
2.2543464122272623e-11	-1.478182e-08	4.1217906e-08	0.95609075	-1.914641e-17	0.20921509
2.5013350833287607e-11	-3.5966902e-08	3.8847546e-08	0.9397156	-1.88301e-17	0.21076006
2.7532514483226087e-11	-5.4189034e-08	2.2386722e-08	0.90428126	-1.8773642e-17	0.23370689
3.000214665234257e-11	-5.688861e-08	-3.4238514e-09	0.8642811	-1.9017187e-17	0.2561492
3.252116887385668e-11	-4.7999762e-08	-2.8905207e-08	0.83066267	-1.9375708e-17	0.2141953
3.5040218167104034e-11	-3.1275565e-08	-4.8549143e-08	0.8021818	-1.9646931e-17	0.20074409
3.750959648572472e-11	-1.1259204e-08	-5.7431816e-08	0.77888757	-1.9807607e-17	0.20257482
4.0027887401544e-11	9.119296e-09	-5.5242527e-08	0.7602481	-1.989903e-17	0.20680624
4.254591275176046e-11	2.416449e-08	-4.329197e-08	0.7468509	-1.9945814e-17	0.21026258
4.501471620666561e-11	3.1440173e-08	-2.916858e-08	0.7383743	-1.9966735e-17	0.21230187
4.7532946529297265e-11	3.3283786e-08	-1.4485526e-08	0.73384	-1.9975073e-17	0.21132372
5.0001740697627577e-11	3.078174e-08	-4.213971e-09	0.7329327	-1.9978108e-17	0.21140185
5.251988746714752e-11	2.6485466e-08	2.19752e-09	0.7348406	-1.9980445e-17	0.21129929
5.503803133523599e-11	2.214804e-08	6.3044956e-09	0.7389274	-1.9984399e-17	0.21227187
5.750683194818623e-11	1.8329128e-08	8.691315e-09	0.74467796	-1.9990929e-17	0.2124062
6.002502474366186e-11	1.478182e-08	1.0139868e-08	0.7519987	-2.0000622e-17	0.2127506
6.254321999144385e-11	1.1917637e-08	9.876494e-09	0.7603912	-2.0013235e-17	0.21300986
6.501206249091452e-11	9.464974e-09	9.646043e-09	0.76927763	-2.0027977e-17	0.21417202
6.753023158883857e-11	6.9217765e-09	9.744808e-09	0.7786964	-2.0044752e-17	0.21438591
7.004843008312256e-11	5.3003855e-09	8.493785e-09	0.7882135	-2.0062485e-17	0.21518767
7.251725865306702e-11	3.5884598e-09	6.8970856e-09	0.7974033	-2.0079957e-17	0.21710171
7.503544561433318e-11	2.8641833e-09	4.7756967e-09	0.8063921	-2.0097016e-17	0.21840094
7.750424726784759e-11	2.8312617e-09	2.7839369e-09	0.81460893	-2.0112304e-17	0.21887442
8.002242580230678e-11	2.7654186e-09	1.6625432e-09	0.8222062	-2.0125921e-17	0.22158463
8.254058466841795e-11	3.3703538e-09	-7.078154e-10	0.82890666	-2.0137287e-17	0.22260882
8.500937598482274e-11	3.8847547e-09	-2.1399071e-09	0.8345792	-2.0146212e-17	0.22422267
8.752751005032571e-11	4.971169e-09	-2.7983402e-09	0.8394918	-2.0153194e-17	0.22477557
9.004564566086481e-11	5.037012e-09	-2.0740638e-09	0.8436117	-2.0158258e-17	0.22639866
9.251439461747993e-11	4.699565e-09	-1.4485525e-09	0.84699255	-2.0161593e-17	0.22662452
9.503251465556726e-11	4.839482e-09	-1.5802392e-09	0.8498881	-2.0163578e-17	0.22707477
9.750124851769322e-11	5.629602e-09	-1.8436124e-09	0.8522924	-2.0164356e-17	0.22820833
1.0001936158826149e-10	7.111076e-09	-1.5802392e-09	0.8543965	-2.0164183e-17	0.2288143
1.0253747210408333e-10	7.654283e-09	0	0.8562259	-2.0163237e-17	0.22903915
1.050062073995292e-10	7.473214e-09	1.679004e-09	0.85781187	-2.0161728e-17	0.22896194
1.0752429174645472e-10	6.9793895e-09	2.2386721e-09	0.8592636	-2.0159727e-17	0.22943313
1.1004237694408658e-10	6.6830945e-09	2.633732e-09	0.86058354	-2.0157364e-17	0.23010859
1.125110840043174e-10	6.8806245e-09	3.094635e-09	0.86177593	-2.0154768e-17	0.23061867
1.1502915559947753e-10	6.7818595e-09	3.555538e-09	0.862909	-2.0151893e-17	0.23102823
1.1754723582408123e-10	6.6007906e-09	4.312736e-09	0.8639745	-2.0148824e-17	0.23128787
1.2001594840879382e-10	5.9588183e-09	4.510266e-09	0.86496586	-2.014566e-17	0.23141524
1.2253403977476469e-10	5.530837e-09	4.8065605e-09	0.8659329	-2.0142286e-17	0.23143655
1.2500273894012985e-10	6.1234267e-09	4.8065605e-09	0.8668459	-2.013884e-17	0.23140797
1.2752081366150803e-10	6.0246617e-09	4.938247e-09	0.8677483	-2.013519e-17	0.23128578
1.3003890202548497e-10	6.3538783e-09	5.8271317e-09	0.8686275	-2.0131402e-17	0.23107249
1.3250760572287794e-10	5.892975e-09	5.79421e-09	0.8694722	-2.0127546e-17	0.23078029
1.3502569994855298e-10	5.267464e-09	6.0575833e-09	0.87032074	-2.0123455e-17	0.23040162
1.3754379315508076e-10	4.4773443e-09	6.3868e-09	0.8711604	-2.0119193e-17	0.22993788
1.40012504729129e-10	3.9505976e-09	6.913546e-09	0.871979	-2.0114836e-17	0.2294043
1.425306032068462e-10	3.9835193e-09	7.242763e-09	0.87281334	-2.011018e-17	0.22877595
1.4504868086055983e-10	3.6213814e-09	7.1769195e-09	0.87365067	-2.0105291e-17	0.22805786
1.4751740081362423e-10	2.897105e-09	8.098725e-09	0.8744784	-2.0100244e-17	0.227264
1.5003548609503413e-10	2.6666536e-09	8.098725e-09	0.8753336	-2.00948e-17	0.22635376
1.525041991420788e-10	2.0082205e-09	8.230412e-09	0.8761867	-2.0089137e-17	0.22535753
1.5502228472635492e-10	2.7654186e-09	9.415592e-09	0.8770763	-2.0082976e-17	0.22423473
1.5754037421459456e-10	2.1069855e-09	1.0337398e-08	0.8779901	-2.0076373e-17	0.22399254
1.6000909869420976e-10	1.0534927e-09	1.0534928e-08	0.8789149	-2.0069407e-17	0.22363779
1.6252718560702306e-10	-9.218062e-10	1.0929988e-08	0.8798932	-2.0061719e-17	0.2231414
1.6504528686279823e-10	-1.5802392e-09	1.0337398e-08	0.88091356	-2.0053346e-17	0.22249323
1.6751400531615415e-10	-1.5473175e-09	1.0403241e-08	0.8819619	-2.0044366e-17	0.22168414
1.700321051951524e-10	-2.436202e-09	1.1127518e-08	0.88308865	-2.0034266e-17	0.22065546
1.72500815867897e-10	-3.6872247e-09	1.0765379e-08	0.8842593	-2.0023285e-17	0.21941291
1.7501891858967787e-10	-4.3456576e-09	1.1259204e-08	0.885532	-2.0010758e-17	0.2192417
1.7753702624211589e-10	-6.090505e-09	1.2115167e-08	0.886898	-1.9996618e-17	0.21895374
1.8000575298983085e-10	-7.506136e-09	1.2246853e-08	0.8883436	-1.9980854e-17	0.21837507
1.8252384244964927e-10	-9.218062e-09	1.2641913e-08	0.88994616	-1.9962388e-17	0.2173987
1.850419479986555e-10	-1.1687185e-08	1.3168659e-08	0.8917013	-1.9940924e-17	0.21592085
1.8751069157111956e-10	-1.4320917e-08	1.2641913e-08	0.8935974	-1.9916215e-17	0.21597287
1.900287908985896e-10	-1.797522e-08	1.2016402e-08	0.8957439	-1.9886242e-17	0.21566531
1.92546910169897e-10	-2.2222112e-08	1.0929988e-08	0.8981445	-1.9850045e-17	0.21452509
1.9501565634675307e-10	-2.617271e-08	9.218062e-09	0.9007889	-1.9806626e-17	0.21397085
1.9753379396747088e-10	-3.1078038e-08	6.302438e-09	0.90383077	-1.9751563e-17	0.21397255
2.0000253297023496e-10	-3.7267306e-08	2.8312617e-09	0.90719277	-1.9683328e-17	0.21245681
2.0252068112461785e-10	-4.556356e-08	-3.6872247e-09	0.9110274	-1.959381e-17	0.21331894
2.050388217542242e-10	-5.4781623e-08	-1.3958779e-08	0.915215	-1.9476416e-17	0.21225263
2.0750759712027603e-10	-6.3868e-08	-2.8971051e-08	0.9194361	-1.9323652e-17	0.21268454
2.1002576641289433e-10	-7.190088e-08	-5.1226085e-08	0.9232302	-1.9114816e-17	0.21189214
2.1254394565861386e-10	-7.611485e-08	-8.131647e-08	0.925045	-1.8836004e-17	0.21142685
2.1501276851056778e-10	-7.246055e-08	-1.1970312e-07	0.92207533	-1.8490364e-17	0.21017174
2.17530967792252e-10	-4.9423626e-08	-1.6078933e-07	0.9098076	-1.8111338e-17	0.217022
2.2004920084098497e-10	-1.2510226e-09	-1.9555459e-07	0.8856658	-1.7855426e-17	0.24158041
2.2251804727369288e-10	5.3250766e-08	-2.2966142e-07	0.85530084	-1.79556e-17	0.247279
2.2503628011169578e-10	1.3214749e-07	-2.4171075e-07	0.82215226	-1.8395021e-17	0.20964599
2.275052455042824e-10	2.0964505e-07	-1.7415552e-07	0.78802586	-1.8848377e-17	0.1973347
2.30023866862897e-10	2.425338e-07	-6.373631e-08	0.753726	-1.9194892e-17	0.20022419
2.3254254481304456e-10	2.2715938e-07	3.772821e-08	0.7226664	-1.9429235e-17	0.20601635
2.350112165088781e-10	1.8041064e-07	1.04164094e-07	0.6972053	-1.9576442e-17	0.20951736
2.375292551761311e-10	1.1950559e-07	1.3471539e-07	0.6770738	-1.9665756e-17	0.21179321
2.4004740147806263e-10	6.192562e-08	1.3484707e-07	0.6626385	-1.9713767e-17	0.2117521
2.425161368593082e-10	1.695465e-08	1.1878131e-07	0.6537068	-1.9736594e-17	0.21076603
2.4503424099849695e-10	-1.2246853e-08	9.455098e-08	0.6492075	-1.9746823e-17	0.21076773
2.475029708407227e-10	-2.6320858e-08	6.979389e-08	0.6484088	-1.9751493e-17	0.21090075
2.500211453282705e-10	-3.1802312e-08	5.1489458e-08	0.65066	-1.9755457e-17	0.21059075
2.525393237381784e-10	-3.137433e-08	3.674056e-08	0.6555751	-1.976128e-17	0.2107834
2.5500816486072385e-10	-3.03373e-08	2.5678887e-08	0.6625255	-1.9770136e-17	0.21146376
2.5752639441400567e-10	-2.87406e-08	1.7119257e-08	0.67130846	-1.9782933e-17	0.21067883
2.6004457780294144e-10	-2.6699457e-08	1.0008181e-08	0.68139875	-1.9799557e-17	0.21152623
2.6251343036686446e-10	-2.337437e-08	5.069934e-09	0.69227046	-1.9819335e-17	0.2116409
2.650316325986643e-10	-1.9456694e-08	0	0.7041228	-1.9842637e-17	0.21102059
2.6750045969479066e-10	-1.576947e-08	-1.4485525e-09	0.7162826	-1.986805e-17	0.21164261
2.70018654651205e-10	-1.2016402e-08	-2.3703588e-09	0.7290306	-1.9896013e-17	0.21237285
2.725368483189856e-10	-8.7571586e-09	-3.736607e-09	0.74193174	-1.9925421e-17	0.21292835
2.7500565488398895e-10	-7.226302e-09	-3.0287917e-09	0.75455	-1.995502e-17	0.21345489
2.7752384550861356e-10	-6.9300072e-09	-1.679004e-09	0.7672131	-1.998527e-17	0.21408704
2.800420168137921e-10	-5.629602e-09	-1.9752988e-09	0.7794825	-2.00148e-17	0.21484993
2.825108109771223e-10	-3.2921648e-09	-1.7119257e-09	0.7909411	-2.0042269e-17	0.21560095
2.850289695896157e-10	-6.707786e-10	-9.547279e-10	0.801851	-2.0067972e-17	0.2172768
2.8754712514750297e-10	2.016451e-09	1.0534927e-09	0.8117887	-2.0090657e-17	0.21962695
2.9001588444297417e-10	4.3045056e-09	3.0864045e-09	0.8204445	-2.0109545e-17	0.2215567
2.9253399528512133e-10	6.4526433e-09	5.7612883e-09	0.8280853	-2.0125273e-17	0.22231218
2.95002737078594e-10	7.950578e-09	8.164569e-09	0.8344159	-2.01374e-17	0.22451681
2.975208483763289e-10	7.3579884e-09	1.078184e-08	0.83977336	-2.0146771e-17	0.22506285
3.0003893078208905e-10	6.4197216e-09	1.2246853e-08	0.84416133	-2.0153541e-17	0.22668791
3.0250765048734483e-10	4.8806346e-09	1.27736e-08	0.84768385	-2.0158036e-17	0.22671522
3.0502572286563705e-10	3.4403123e-09	1.2510227e-08	0.8506433	-2.0160809e-17	0.22755218
3.0754378368639434e-10	2.732497e-09	1.2740678e-08	0.853106	-2.0162099e-17	0.22852376
3.10012482441302e-10	2.0740638e-09	1.27736e-08	0.85515225	-2.0162218e-17	0.22899163
3.1253053757839524e-10	9.218062e-10	1.28723645e-08	0.85695356	-2.0161447e-17	0.22906566
3.150486059804934e-10	-1.1851794e-09	1.2049323e-08	0.858535	-2.0159983e-17	0.22900607
3.1751729280179244e-10	-1.777769e-09	1.0995831e-08	0.8599218	-2.0158039e-17	0.22980735
3.2003535296419974e-10	-2.3703588e-09	9.810651e-09	0.8612074	-2.0155672e-17	0.23037656
3.225040361796739e-10	-1.9423774e-09	8.131647e-09	0.86236876	-2.0153048e-17	0.23085792
3.2502211309373177e-10	-1.218101e-09	8.7242364e-09	0.86347395	-2.0150133e-17	0.23118593
3.2754016620690346e-10	-7.571979e-10	8.888845e-09	0.8645148	-2.0147023e-17	0.2313721
3.3000886524087075e-10	-2.3045155e-09	9.646043e-09	0.86548555	-2.0143805e-17	0.23143786
3.325269369527109e-10	-3.6872247e-09	9.3497485e-09	0.8664347	-2.0140374e-17	0.2314324
3.350450017065458e-10	-3.6213814e-09	8.625472e-09	0.8673509	-2.0136795e-17	0.23135182
3.3751369371060774e-10	-3.753068e-09	7.1769195e-09	0.86822325	-2.0133153e-17	0.23118177
3.4003177075235736e-10	-2.9300267e-09	6.5184866e-09	0.8690929	-2.012929e-17	0.23092227
3.4250045868143454e-10	-3.3909298e-09	6.0575833e-09	0.86993057	-2.0125356e-17	0.23058711
3.450185191059792e-10	-2.897105e-09	6.3538783e-09	0.870774	-2.0121177e-17	0.23016268
3.475365769492766e-10	-3.9505976e-09	6.5843295e-09	0.8716107	-2.0116817e-17	0.22965658
3.500052895254304e-10	-3.8847547e-09	6.0575833e-09	0.8724286	-2.011235e-17	0.22907825
3.5252335253440847e-10	-4.839482e-09	4.609031e-09	0.87326413	-2.0107575e-17	0.22840086
3.5504141309315326e-10	-4.0822843e-09	4.3456576e-09	0.8741048	-2.0102547e-17	0.2276346
3.575101269313161e-10	-3.753068e-09	3.6213814e-09	0.8749379	-2.0097347e-17	0.22678813
3.6002818287946897e-10	-3.9505976e-09	3.0287917e-09	0.8758007	-2.0091726e-17	0.22582118
3.6254624101613467e-10	-3.2263217e-09	3.4896948e-09	0.8766811	-2.0085742e-17	0.2247416
3.650149620716049e-10	-3.1604783e-09	2.8312617e-09	0.8775657	-2.0079472e-17	0.22411837
3.6753302763481603e-10	-3.358008e-09	2.3703588e-09	0.87849504	-2.0072606e-17	0.22381188
3.700017249814815e-10	-3.094635e-09	2.6995752e-09	0.8794377	-2.0065339e-17	0.22338772
3.7251980004985936e-10	-2.8312617e-09	2.8312617e-09	0.8804378	-2.0057297e-17	0.22281256
3.750378795222048e-10	-3.094635e-09	2.7654186e-09	0.88148373	-2.004851e-17	0.22206984
3.775065759829048e-10	-2.9629483e-09	2.0411421e-09	0.8825617	-2.0039044e-17	0.22115707
3.800246518130083e-10	-2.897105e-09	1.6460824e-09	0.88372374	-2.002837e-17	0.22000392
3.825427217657315e-10	-2.897105e-09	1.8436124e-09	0.8849599	-2.0016464e-17	0.21928717
3.8501142400870684e-10	-2.633732e-09	2.1728288e-09	0.886256	-2.0003356e-17	0.2191208
3.875295157696806e-10	-3.1604783e-09	1.777769e-09	0.887679	-1.9988207e-17	0.21867779
3.9004759402420807e-10	-3.5884598e-09	1.777769e-09	0.8892218	-1.997087e-17	0.21788397
3.9251631046364063e-10	-3.7201462e-09	1.316866e-09	0.89087176	-1.9951232e-17	0.21667156
3.9503439559953473e-10	-3.753068e-09	1.6460824e-09	0.89272064	-1.9927841e-17	0.21591027
3.975031186684337e-10	-4.510266e-09	2.7983402e-10	0.8947257	-1.990073e-17	0.2158933
4.0002121356340313e-10	-4.312736e-09	-7.2427625e-10	0.8970038	-1.986761e-17	0.21517342
4.025392996783261e-10	-4.5761093e-09	-5.2674637e-10	0.8995601	-1.9827284e-17	0.21360199
4.0500804326788763e-10	-3.8189114e-09	-1.1193361e-09	0.9023827	-1.9778502e-17	0.21415016
4.075261512489555e-10	-4.7736393e-09	-1.6316792e-09	0.90563107	-1.9716073e-17	0.21328938
4.100442794326118e-10	-6.716016e-09	-2.3045155e-09	0.9092858	-1.963622e-17	0.21323135
4.125130307323648e-10	-7.604901e-09	-3.9505976e-09	0.9132502	-1.95346e-17	0.21265827
4.150311761271999e-10	-8.296255e-09	-7.242763e-09	0.91754866	-1.9397845e-17	0.2129326
4.1754931610208966e-10	-8.427942e-09	-1.1555499e-08	0.92168677	-1.9214648e-17	0.21136434
4.200181069593818e-10	-7.506136e-09	-1.6855884e-08	0.92459965	-1.8974082e-17	0.21182695
4.225362741916859e-10	-5.4485327e-09	-2.35719e-08	0.9242448	-1.8653677e-17	0.21097733
4.2500508187917285e-10	6.337417e-10	-2.9497798e-08	0.916909	-1.8282637e-17	0.21279012
4.2752329347771495e-10	1.02839e-08	-3.3448394e-08	0.8981314	-1.7943404e-17	0.22844298
4.3004151763001375e-10	2.1596602e-08	-3.3711768e-08	0.86932147	-1.785661e-17	0.25702128
4.3251035664632027e-10	3.5028634e-08	-3.5292008e-08	0.8376873	-1.8171323e-17	0.22379524
4.3502862759708596e-10	4.6814584e-08	-2.294639e-08	0.8034894	-1.8655505e-17	0.20080087
4.375471226481485e-10	4.951416e-08	-2.0740638e-09	0.7686141	-1.905736e-17	0.19830097
4.400164735968648e-10	4.215617e-08	1.5473175e-08	0.7364326	-1.9333367e-17	0.20334542
4.4253477150518806e-10	3.116034e-08	2.7456656e-08	0.7079804	-1.9518754e-17	0.2085894
4.4500340072994027e-10	1.879826e-08	3.015623e-08	0.68562263	-1.9630872e-17	0.210603
4.475214988688698e-10	7.901195e-09	2.8444305e-08	0.66860306	-1.9695619e-17	0.21093377
4.5003959105772594e-10	4.2798143e-10	2.3440213e-08	0.6571187	-1.9728464e-17	0.2115413
4.5250828480426434e-10	-3.7201462e-09	1.7514317e-08	0.6507669	-1.9743177e-17	0.21049063
4.550263875602418e-10	-6.0246617e-09	1.1720107e-08	0.6483721	-1.9749703e-17	0.21088794
4.575444828824074e-10	-5.0205515e-09	7.637823e-09	0.6493128	-1.97536e-17	0.21080905
4.6001325338794035e-10	-3.2921648e-09	5.135777e-09	0.6530069	-1.9758253e-17	0.21014348
4.625314378170539e-10	-2.4855844e-09	4.7407176e-09	0.6591659	-1.9765716e-17	0.21133025
4.650002598950168e-10	-2.7983402e-09	2.897105e-09	0.6670753	-1.9776548e-17	0.21103282
4.675184436169391e-10	-2.2304416e-09	1.8436124e-09	0.676606	-1.9791431e-17	0.2115657
4.700366228849953e-10	-1.7448474e-09	-1.3168659e-10	0.68727106	-1.9810026e-17	0.21061726
4.72505439000285e-10	-5.7612887e-10	2.6337318e-10	0.69857675	-1.9831534e-17	0.21163806
4.750236274778487e-10	1.0205711e-09	-5.2674637e-10	0.7107545	-1.9856328e-17	0.21208167
4.775418070838809e-10	2.534967e-09	2.6337318e-10	0.7233731	-1.9883453e-17	0.21213716
4.80010595594905e-10	2.3045155e-09	1.0534927e-09	0.7359767	-1.9911725e-17	0.21200436
4.825287656467113e-10	1.7613082e-09	2.6995752e-09	0.748883	-1.994164e-17	0.21199246
4.850469238717608e-10	1.316866e-09	2.0740638e-09	0.76166016	-1.9971952e-17	0.21316008
4.875157072318275e-10	2.3621283e-09	2.4032802e-09	0.7738863	-2.0001325e-17	0.21445118
4.900338366143842e-10	1.7119257e-09	2.5514277e-09	0.78586316	-2.0030132e-17	0.2158599
4.92502603026273e-10	2.4032802e-09	1.2469075e-09	0.79693043	-2.0056458e-17	0.21740478
4.950207380726679e-10	3.753068e-09	3.234552e-09	0.80733794	-2.0080605e-17	0.21893398
4.975388456231848e-10	3.2921648e-09	5.9012053e-09	0.81668633	-2.0101465e-17	0.2200345
5.000075559698854e-10	1.2839443e-09	6.79009e-09	0.8247127	-2.0118459e-17	0.22203898
5.025256627945667e-10	8.5596286e-10	2.6501927e-09	0.8317034	-2.013232e-17	0.22397082
5.050437353742232e-10	1.9752988e-09	5.5966803e-10	0.83753663	-2.0142984e-17	0.22435479
5.075124248151527e-10	4.6748743e-09	-8.065804e-10	0.84224766	-2.0150715e-17	0.22617923
5.100304770587152e-10	7.1769195e-09	2.3045155e-10	0.8461825	-2.0156246e-17	0.22685042
5.125485290521247e-10	7.670744e-09	4.2798143e-09	0.8494055	-2.0159786e-17	0.22685015
5.150171813934228e-10	5.3991505e-09	7.7695095e-09	0.85202366	-2.0161667e-17	0.22816777
5.175352103508671e-10	1.777769e-09	7.341528e-09	0.85426956	-2.016229e-17	0.22883876
5.20003873964947e-10	-6.255113e-10	5.0040905e-09	0.8561537	-2.0161897e-17	0.2290738
5.225219107880304e-10	-3.2921648e-11	6.58433e-10	0.8578293	-2.0160727e-17	0.22898059
5.250399427959596e-10	2.6666536e-09	-8.888845e-10	0.85931444	-2.0158969e-17	0.2294795
5.275086010815339e-10	5.4979155e-09	8.5596286e-10	0.8606286	-2.0156805e-17	0.230141
5.30026624292354e-10	5.8600533e-09	3.2921648e-09	0.86185634	-2.015426e-17	0.23066092
5.325446502454218e-10	4.510266e-09	5.892975e-09	0.86299455	-2.0151447e-17	0.23106052
5.350133123102093e-10	2.2386721e-09	6.7818595e-09	0.86404175	-2.014848e-17	0.23130322
5.375313541701278e-10	4.2798143e-10	4.839482e-09	0.8650536	-2.0145277e-17	0.23142228
5.400000218848326e-10	7.571979e-10	2.5678886e-09	0.8660014	-2.0141975e-17	0.23143812
5.42518037995577e-10	1.876534e-09	1.8436124e-09	0.86693186	-2.0138465e-17	0.23140147
5.450360723162897e-10	2.5020452e-09	3.4896948e-09	0.867833	-2.0134814e-17	0.23126863
5.475047411201076e-10	2.6008102e-09	4.7407176e-09	0.868694	-2.0131091e-17	0.23105244
5.500227758438095e-10	2.4032802e-09	6.18927e-09	0.8695546	-2.0127147e-17	0.23074849
5.525408108354696e-10	8.230412e-10	6.3209566e-09	0.8704024	-2.0123044e-17	0.23036012
5.550094793030169e-10	-4.2798143e-10	5.069934e-09	0.87122524	-2.0118852e-17	0.22989944
5.57527520690812e-10	-8.5596286e-10	3.753068e-09	0.87206006	-2.0114389e-17	0.22934872
5.60045557011746e-10	-3.292165e-10	3.2263217e-09	0.8728945	-2.0109714e-17	0.22871102
5.625142365197234e-10	9.876495e-11	3.6213814e-09	0.87371606	-2.01049e-17	0.22799984
5.650322823896626e-10	-9.876495e-11	4.4773443e-09	0.8745612	-2.0099725e-17	0.22718066
5.675009387901298e-10	-2.6337318e-10	4.016441e-09	0.8754006	-2.0094363e-17	0.2262802
5.700189789033065e-10	-3.950598e-10	4.016441e-09	0.87627244	-2.008855e-17	0.2252548
5.725370180997985e-10	-7.2427625e-10	4.609031e-09	0.87716407	-2.0082349e-17	0.22421704
5.750056898202529e-10	-1.0534927e-09	4.872404e-09	0.8780624	-2.0075837e-17	0.2239684
5.775237390741063e-10	-2.1069855e-09	3.9505976e-09	0.87900853	-2.0068684e-17	0.22359534
5.800417850850204e-10	-1.5143958e-09	3.2921648e-09	0.87999064	-2.0060936e-17	0.22308618
5.825104503601725e-10	-1.5143958e-09	4.016441e-09	0.88099486	-2.0052666e-17	0.22243541
5.850284979467041e-10	-1.3497876e-09	4.7407176e-09	0.8820688	-2.0043427e-17	0.22159384
5.875465477992998e-10	-2.1728288e-09	5.3991505e-09	0.88320166	-2.0033228e-17	0.22054349
5.900152369006854e-10	-2.7654186e-09	5.6625233e-09	0.88437927	-2.0022128e-17	0.21929814
5.925332902836963e-10	-3.4238514e-09	5.135777e-09	0.8856604	-2.0009456e-17	0.21922497
5.950019711045393e-10	-4.5431876e-09	5.135777e-09	0.8870085	-1.9995445e-17	0.21892054
5.975200303621038e-10	-4.971169e-09	4.7407176e-09	0.8884935	-1.9979175e-17	0.21829996
6.00038087991247e-10	-5.79421e-09	4.872404e-09	0.89010966	-1.9960446e-17	0.21727873
6.025067712240044e-10	-7.0781545e-09	4.2798143e-09	0.8918446	-1.9939113e-17	0.21579368
6.050248201887412e-10	-8.296255e-09	4.016441e-09	0.8937961	-1.9913531e-17	0.2159723
6.075428836541571e-10	-9.020532e-09	4.016441e-09	0.89596534	-1.9883023e-17	0.21559538
6.100115925986433e-10	-1.1193361e-08	3.094635e-09	0.89834243	-1.9846928e-17	0.21439347
6.125296797037615e-10	-1.3563719e-08	2.353898e-09	0.9010682	-1.9801807e-17	0.2140298
6.150477626564564e-10	-1.6460824e-08	6.5843296e-11	0.90414625	-1.9745506e-17	0.21389028
6.175164838489426e-10	-1.8831184e-08	-2.5020452e-09	0.9075472	-1.967562e-17	0.2126371
6.200345954110016e-10	-2.2913467e-08	-6.617251e-09	0.9114202	-1.9583786e-17	0.21326713
6.225033395714403e-10	-2.6469005e-08	-1.1325047e-08	0.9155491	-1.946587e-17	0.21241356
6.250214579915308e-10	-2.976117e-08	-2.0148049e-08	0.91984206	-1.9305995e-17	0.212532
6.275396076040068e-10	-3.2855805e-08	-3.2789963e-08	0.9235266	-1.909107e-17	0.21193664
6.300083721547736e-10	-3.331671e-08	-4.8987413e-08	0.9250303	-1.8811172e-17	0.2113581
6.325265477132641e-10	-2.7835254e-08	-6.999142e-08	0.9213691	-1.8453283e-17	0.21059844
6.350447343219016e-10	-1.198348e-08	-8.8493394e-08	0.9079715	-1.8077678e-17	0.21823363
6.375135679864161e-10	1.580239e-08	-1.0284723e-07	0.8834068	-1.7847873e-17	0.24509472
6.400317727085809e-10	4.7473016e-08	-1.1904468e-07	0.85217243	-1.7988081e-17	0.24242482
6.425006387049225e-10	9.0337004e-08	-1.1706938e-07	0.81950164	-1.8433315e-17	0.20833048
6.450189803334517e-10	1.2510226e-07	-7.2970835e-08	0.7846313	-1.8887538e-17	0.19760329
6.475376400124906e-10	1.3316807e-07	-1.198348e-08	0.7505332	-1.9222081e-17	0.20072675
6.500069096851629e-10	1.1690477e-07	3.976935e-08	0.7204604	-1.9443499e-17	0.2063532
6.525249207464402e-10	8.6221796e-08	6.939884e-08	0.6949933	-1.958745e-17	0.21018289
6.550429136581577e-10	5.2674636e-08	7.9407016e-08	0.6754301	-1.9671922e-17	0.21187116
6.575116148247888e-10	2.2419643e-08	7.506136e-08	0.6617516	-1.9716262e-17	0.21180542
6.600296648523089e-10	1.6460824e-10	6.307788e-08	0.65308285	-1.9738013e-17	0.2105725
6.625477218028404e-10	-1.198348e-08	4.7407173e-08	0.64898187	-1.9747428e-17	0.21080308
6.650164227752737e-10	-1.7069874e-08	3.4501888e-08	0.6484987	-1.9751855e-17	0.21089762
6.675345335127056e-10	-1.6921728e-08	2.4493707e-08	0.65102655	-1.9755907e-17	0.21051745
6.700033013037913e-10	-1.6518436e-08	1.6855884e-08	0.6560523	-1.9761853e-17	0.2108794
6.725214512779849e-10	-1.5934077e-08	1.1851793e-08	0.6633081	-1.9771206e-17	0.21144105
6.750396203235742e-10	-1.3925857e-08	7.3744495e-09	0.6722334	-1.9784379e-17	0.21090275
6.775084083330342e-10	-1.2230393e-08	3.555538e-09	0.6822226	-1.9800995e-17	0.21143821
6.800265700632402e-10	-1.0880605e-08	7.901196e-10	0.693387	-1.9821461e-17	0.21174927
6.825447237282115e-10	-8.551398e-09	-1.4485525e-09	0.7053021	-1.984504e-17	0.21133253
6.850135168889582e-10	-5.6789844e-09	-1.4485525e-09	0.7175035	-1.9870675e-17	0.2113814
6.87531658298245e-10	-3.358008e-09	-1.9752988e-09	0.7302745	-1.9898802e-17	0.2122447
6.900004211758112e-10	-2.4691236e-09	-2.2386721e-09	0.742927	-1.9927732e-17	0.21293034
6.925185470992864e-10	-1.5143958e-09	-1.316866e-09	0.7557859	-1.9957949e-17	0.21358034
6.950366708915464e-10	6.255113e-10	1.975299e-10	0.7684188	-1.9988164e-17	0.21432202
6.975054259963548e-10	1.0864144e-09	1.6625432e-09	0.78040534	-2.0017025e-17	0.21513323
7.000235394663223e-10	4.2798143e-10	2.0905246e-09	0.7920323	-2.0044866e-17	0.21608132
7.025416339997798e-10	6.79009e-10	1.5555479e-09	0.8028558	-2.0070305e-17	0.21706519
7.050103444300593e-10	9.547279e-10	1.3827093e-09	0.81250834	-2.0092265e-17	0.21961464
7.075284208320148e-10	2.576119e-09	2.1728288e-09	0.8212349	-2.0111219e-17	0.22174892
7.100464747586731e-10	4.9053255e-09	4.0822843e-09	0.8287586	-2.0126605e-17	0.22269681
7.125151414856066e-10	4.872404e-09	6.18927e-09	0.8349791	-2.0138428e-17	0.22455135
7.150331809346191e-10	4.5061506e-09	7.3744495e-09	0.840236	-2.0147534e-17	0.22529803
7.175018355623232e-10	3.7859897e-09	8.7571586e-09	0.844463	-2.0153961e-17	0.22673748
7.200198595953874e-10	2.0905246e-09	7.7695095e-09	0.84799445	-2.0158377e-17	0.22665954
7.225378686500945e-10	1.7448474e-09	7.506136e-09	0.85090005	-2.0160992e-17	0.22768109
7.250064932381372e-10	1.679004e-09	6.9793895e-09	0.85327804	-2.0162147e-17	0.22857453
7.275244897577463e-10	1.9423774e-09	7.5719795e-09	0.855337	-2.016218e-17	0.22901605
7.300424914895905e-10	1.4156308e-09	7.5719795e-09	0.85711443	-2.0161328e-17	0.22905596
7.325111001401491e-10	9.876494e-10	7.5719795e-09	0.8586487	-2.0159844e-17	0.22907878
7.350290952738247e-10	-4.2798143e-10	7.111076e-09	0.8600507	-2.0157827e-17	0.2298717
7.375470937845725e-10	-7.901196e-10	6.1234267e-09	0.8613254	-2.0155425e-17	0.23042955
7.400157278538417e-10	-6.58433e-10	4.7407176e-09	0.8624783	-2.0152777e-17	0.23089647
7.425337309795435e-10	3.950598e-10	4.115206e-09	0.8635766	-2.0149845e-17	0.23121038
7.450023667764664e-10	8.888845e-10	5.530837e-09	0.86459225	-2.0146778e-17	0.23138225
7.475203749844134e-10	4.2798143e-10	5.8600533e-09	0.86557835	-2.0143482e-17	0.2314402
7.500383809110132e-10	-4.938247e-10	5.9588183e-09	0.86652404	-2.0140036e-17	0.23143058
7.525070124178247e-10	-1.0864144e-09	5.530837e-09	0.86741966	-2.0136518e-17	0.23134169
7.550250232994095e-10	-1.1851794e-09	4.7736393e-09	0.86830777	-2.0132787e-17	0.23116043
7.575430361103866e-10	-7.2427625e-10	5.135777e-09	0.86917555	-2.012891e-17	0.23089336
7.600116778226316e-10	-8.888845e-10	4.7736393e-09	0.8700119	-2.0124962e-17	0.23055035
7.62529679870756e-10	-1.0534927e-09	5.037012e-09	0.87085444	-2.0120766e-17	0.230118
7.650476908017008e-10	-1.7448474e-09	4.7407176e-09	0.87169087	-2.011639e-17	0.22960368
7.675163346403178e-10	-1.9423774e-09	4.411501e-09	0.8725086	-2.0111902e-17	0.22901605
7.700343482303178e-10	-1.5143958e-09	5.267464e-09	0.8733445	-2.0107105e-17	0.22833188
7.725029985035381e-10	-1.777769e-09	4.7407176e-09	0.87416935	-2.0102155e-17	0.22757198
7.750210050124382e-10	-1.8106907e-09	4.1481276e-09	0.87501997	-2.0096823e-17	0.22669905
7.775390354973643e-10	-2.0082205e-09	3.2921648e-09	0.87588435	-2.009117e-17	0.22572319
7.800076886264069e-10	-1.9752988e-09	4.213971e-09	0.87674904	-2.0085267e-17	0.22465546
7.825256965835569e-10	-1.7119257e-09	3.6872247e-09	0.87765354	-2.0078837e-17	0.22409423
7.850437246156099e-10	-2.0411421e-09	3.8189114e-09	0.8785856	-2.007192e-17	0.22377671
7.875123701681229e-10	-2.5678886e-09	3.8847547e-09	0.87953174	-2.0064598e-17	0.22334036
7.900303790623324e-10	-2.897105e-09	3.4896948e-09	0.8805359	-2.005649e-17	0.22274916
7.925484078172049e-10	-2.7654186e-09	3.6213814e-09	0.8815866	-2.0047625e-17	0.2219908
7.950170680282242e-10	-3.555538e-09	4.016441e-09	0.88267004	-2.0038071e-17	0.22105786
7.975350886280984e-10	-3.9505976e-09	3.4896948e-09	0.8838387	-2.0027288e-17	0.2198796
8.0000374789579e-10	-3.8189114e-09	2.897105e-09	0.8850572	-2.0015503e-17	0.21928279
8.025217713284136e-10	-4.0822843e-09	3.094635e-09	0.8863874	-2.0001988e-17	0.21909145
8.05039806245061e-10	-5.069934e-09	3.4238514e-09	0.887821	-1.9986654e-17	0.21861872
8.075084755827388e-10	-5.9258967e-09	2.436202e-09	0.88934463	-1.9969449e-17	0.21780732
8.100265074653292e-10	-5.9258967e-09	2.1069855e-09	0.89104086	-1.9949156e-17	0.21652788
8.125445574456015e-10	-6.18927e-09	1.316866e-09	0.89290726	-1.9925395e-17	0.21593308
8.150132287545346e-10	-6.5184866e-09	9.218062e-10	0.8949327	-1.9897826e-17	0.2158602
8.175312773802872e-10	-7.4402924e-09	3.950598e-10	0.89723533	-1.98641e-17	0.2150567
8.200493350344918e-10	-8.032882e-09	-7.9835e-10	0.89982057	-1.9822976e-17	0.21368407
8.225180288782071e-10	-9.053453e-09	-2.7283815e-09	0.902676	-1.9773152e-17	0.21414034
8.250361078597887e-10	-9.843573e-09	-4.6748743e-09	0.9059622	-1.9709289e-17	0.21310627
8.275048101558817e-10	-1.0864144e-08	-7.637823e-09	0.9095799	-1.962928e-17	0.21328233
8.300229074526638e-10	-1.158842e-08	-1.0666614e-08	0.913653	-1.9523161e-17	0.21244211
8.325410103768202e-10	-1.198348e-08	-1.5901156e-08	0.9179607	-1.9382604e-17	0.2129419
8.350097577070387e-10	-1.1325047e-08	-2.2518408e-08	0.92197096	-1.9198409e-17	0.21142714
8.375278923783817e-10	-8.296255e-09	-3.1078038e-08	0.9247578	-1.8946871e-17	0.21175493
8.400460442085887e-10	-2.2057505e-09	-4.0954532e-08	0.92390823	-1.8619281e-17	0.2108814
8.425148393972772e-10	9.0369925e-09	-5.0040907e-08	0.91565484	-1.8246132e-17	0.21273789
8.45033022909395e-10	2.6337318e-08	-5.412319e-08	0.895714	-1.7919932e-17	0.23066351
8.475018582694329e-10	4.533311e-08	-5.412319e-08	0.86694145	-1.7867417e-17	0.25725237
8.500200481967808e-10	6.906962e-08	-5.3168463e-08	0.8345096	-1.821613e-17	0.21976863
8.525383157471848e-10	8.704484e-08	-2.8641834e-08	0.8001522	-1.8699113e-17	0.19924605
8.550074550251861e-10	8.5958426e-08	7.934117e-09	0.7660216	-1.908264e-17	0.19862051
8.57526192801571e-10	6.813135e-08	3.9835196e-08	0.7335	-1.9354802e-17	0.20360705
8.600444116130217e-10	4.3588262e-08	5.688861e-08	0.705554	-1.9532328e-17	0.20893566
8.625129797059396e-10	2.0707716e-08	5.912728e-08	0.68375343	-1.9638894e-17	0.21025375
8.650309990881397e-10	1.5802392e-09	5.188452e-08	0.66727376	-1.9699867e-17	0.2109352
8.675490413841678e-10	-1.0139868e-08	3.9505977e-08	0.6563004	-1.9730478e-17	0.21140128