# t (s)	mx ()	my ()	mz ()	E_total (J)	MaxAngle (rad)
0	1.2469075e-09	5.2674637e-10	0.9795362	-2.0725773e-17	0.26627314
2.5137753407340908e-12	2.8888747e-09	1.7613082e-09	0.970031	-2.0681606e-17	0.24088107
5.041427537249812e-12	3.094635e-09	4.872404e-09	0.9606209	-2.0582892e-17	0.23053235
7.516577451788407e-12	1.6460824e-09	9.1522185e-09	0.95292807	-2.043856e-17	0.22698449
1.0039887740235655e-11	-4.7407176e-09	1.4617212e-08	0.94772625	-2.0253392e-17	0.22619171
1.2512264969046987e-11	-1.5407332e-08	1.8041064e-08	0.94533855	-2.0041794e-17	0.22391069
1.503307182944421e-11	-3.015623e-08	1.7646004e-08	0.9450573	-1.9788705e-17	0.22195019
1.7503679721150952e-11	-4.8888648e-08	1.0008181e-08	0.945592	-1.948459e-17	0.2195528
2.0023273969278495e-11	-7.009019e-08	-9.218062e-09	0.9441291	-1.9092515e-17	0.21509247
2.25426381694142e-11	-8.5703284e-08	-4.371995e-08	0.9349041	-1.8633534e-17	0.21270005
2.501245638316673e-11	-7.9209485e-08	-8.862508e-08	0.9111005	-1.8260872e-17	0.22443515
2.7531513900368237e-11	-4.148128e-08	-1.2483889e-07	0.8742404	-1.819618e-17	0.2658304
3.0001056613219014e-11	-1.316866e-09	-1.4320918e-07	0.8389792	-1.8553914e-17	0.22954606
3.2519964991728227e-11	5.5769274e-08	-1.3866598e-07	0.80507267	-1.9016393e-17	0.20219882
3.50389499922052e-11	1.09332795e-07	-1.0057563e-07	0.77304554	-1.9353866e-17	0.19791938
3.750850936680267e-11	1.3567835e-07	-4.8032685e-08	0.74516344	-1.9565088e-17	0.20268057
4.002684263060196e-11	1.3318453e-07	3.0287917e-09	0.72170573	-1.9696365e-17	0.20877498
4.254495149926557e-11	1.09168184e-07	4.1086217e-08	0.7039062	-1.9770957e-17	0.21097192
4.501380794990012e-11	7.637823e-08	5.978571e-08	0.6916633	-1.980894e-17	0.212029
4.753204538222807e-11	4.5431875e-08	6.439475e-08	0.68406844	-1.9826912e-17	0.21120092
5.000086672912353e-11	2.1678906e-08	5.965403e-08	0.680872	-1.9834344e-17	0.2114419
5.251906276106159e-11	6.7983206e-09	5.030428e-08	0.6810212	-1.9838142e-17	0.21133564
5.503723885538665e-11	-2.353898e-09	4.1876337e-08	0.6839357	-1.9842051e-17	0.21099213
5.750608890430685e-11	-7.4402924e-09	3.23949e-08	0.6890988	-1.984809e-17	0.21108462
6.002434603322559e-11	-9.958799e-09	2.6600691e-08	0.696323	-1.985751e-17	0.21177989
6.254258363013428e-11	-1.1744798e-08	2.1991662e-08	0.70506936	-1.9870562e-17	0.21137913
6.501144166882029e-11	-1.3514336e-08	1.7909377e-08	0.7147297	-1.9886767e-17	0.21189386
6.752967894853755e-11	-1.4436143e-08	1.3563719e-08	0.72539073	-1.9906388e-17	0.21244523
7.00479085157858e-11	-1.4041083e-08	9.744808e-09	0.73663074	-1.9928604e-17	0.21236268
7.251677682136977e-11	-1.1802411e-08	6.716016e-09	0.7479967	-1.9952265e-17	0.21225037
7.503501079890248e-11	-9.744808e-09	5.0040905e-09	0.75971645	-1.9977576e-17	0.21361718
7.750386514171856e-11	-8.526707e-09	4.1481276e-09	0.77110606	-2.0002769e-17	0.21486755
8.002209995353478e-11	-6.650173e-09	3.4896948e-09	0.78239405	-2.002802e-17	0.21608992
8.254030479633542e-11	-4.213971e-09	2.633732e-09	0.79312605	-2.0051945e-17	0.21728759
8.500913178003143e-11	-1.4814742e-09	1.886822e-09	0.8029008	-2.007333e-17	0.21813062
8.752731801794081e-11	1.6460824e-09	9.547279e-10	0.8119219	-2.0092427e-17	0.22065328
9.004550065954313e-11	5.8600533e-09	1.0946448e-09	0.81984395	-2.0108441e-17	0.22285086
9.251430203052722e-11	8.493785e-09	2.19752e-09	0.82647866	-2.0121152e-17	0.22324212
9.503245842157997e-11	1.0798301e-08	3.5884598e-09	0.8321095	-2.0131298e-17	0.2259758
9.750124015912433e-11	1.1687185e-08	3.753068e-09	0.8366062	-2.0138855e-17	0.2262887
1.0001936554064355e-10	1.26748345e-08	4.609031e-09	0.8402898	-2.0144508e-17	0.22772807
1.0253745084856489e-10	1.2806521e-08	5.8600533e-09	0.84322274	-2.0148459e-17	0.22883901
1.0500615433647011e-10	1.1999941e-08	7.111076e-09	0.84552	-2.0150995e-17	0.22916146
1.0752424738159014e-10	1.0864144e-08	8.526707e-09	0.8474065	-2.0152504e-17	0.22905463
1.1004232329506407e-10	9.053453e-09	8.79008e-09	0.8489404	-2.0153192e-17	0.22971784
1.1251101280002662e-10	7.012311e-09	8.98761e-09	0.8501835	-2.0153278e-17	0.23049504
1.150290884233209e-10	6.288035e-09	8.559629e-09	0.85124856	-2.0152939e-17	0.23105347
1.1754717058662564e-10	5.99174e-09	8.79008e-09	0.85215545	-2.015231e-17	0.23144409
1.2001588308887965e-10	4.839482e-09	8.427942e-09	0.852925	-2.0151504e-17	0.23171756
1.2253395414233256e-10	4.971169e-09	7.901195e-09	0.8536135	-2.015057e-17	0.23193029
1.2500265289470953e-10	3.5226164e-09	7.2756845e-09	0.8542125	-2.0149579e-17	0.23209827
1.2752074245633987e-10	3.4238514e-09	6.9793895e-09	0.8547599	-2.0148543e-17	0.23222028
1.3003882678201307e-10	2.9300267e-09	6.2551133e-09	0.8552536	-2.0147493e-17	0.23230676
1.325075418862532e-10	2.6995752e-09	6.0575833e-09	0.85569394	-2.0146474e-17	0.23236267
1.3502563539905203e-10	2.5678886e-09	6.3209566e-09	0.8561047	-2.0145456e-17	0.23239607
1.3754373258993767e-10	1.876534e-09	6.2551133e-09	0.85648173	-2.0144463e-17	0.23241445
1.4001246547211996e-10	1.6131608e-09	5.5966805e-09	0.85682267	-2.014352e-17	0.23241678
1.4253055727440104e-10	1.4814742e-09	5.464994e-09	0.8571448	-2.0142596e-17	0.23251715
1.4504865655680048e-10	1.2839443e-09	4.609031e-09	0.8574434	-2.0141704e-17	0.23271573
1.475173825011493e-10	1.6460824e-09	4.8065605e-09	0.8577157	-2.0140867e-17	0.2329237
1.500354698448712e-10	2.1399071e-09	6.2551133e-09	0.8579749	-2.0140043e-17	0.23311445
1.525041921360296e-10	1.7119257e-09	6.2551133e-09	0.8582122	-2.0139275e-17	0.23328313
1.5502228061661783e-10	9.0534535e-10	5.99174e-09	0.85843873	-2.0138523e-17	0.2334414
1.57540375062494e-10	7.571979e-10	5.333307e-09	0.85865086	-2.0137805e-17	0.23358178
1.6000911123384105e-10	7.571979e-10	4.938247e-09	0.85884625	-2.0137128e-17	0.23370896
1.6252720831467108e-10	6.748938e-10	5.2016205e-09	0.8590334	-2.0136471e-17	0.23382732
1.6504530156116091e-10	6.255113e-10	4.7407176e-09	0.8592095	-2.0135841e-17	0.23393457
1.6751403901739882e-10	1.4156308e-09	4.938247e-09	0.8593721	-2.013525e-17	0.23403123
1.7003213406546352e-10	8.888845e-10	4.938247e-09	0.8595285	-2.0134678e-17	0.23412168
1.7250086042551802e-10	6.255113e-10	4.1481276e-09	0.85967314	-2.0134137e-17	0.23420183
1.7501895108634313e-10	1.3991701e-09	3.4896948e-09	0.85981256	-2.0133613e-17	0.23427965
1.775370523487658e-10	1.7448474e-09	4.411501e-09	0.8599443	-2.0133113e-17	0.23434871
1.800057777136332e-10	1.4320917e-09	5.0040905e-09	0.8600667	-2.013264e-17	0.23441261
1.8252387939421637e-10	1.1193361e-09	4.971169e-09	0.86018467	-2.013218e-17	0.23447317
1.8504198609393994e-10	4.609031e-10	5.0040905e-09	0.86029655	-2.0131745e-17	0.2345278
1.8751070923650448e-10	4.938247e-10	4.5431876e-09	0.86040056	-2.0131331e-17	0.23457858
1.9002881727557592e-10	1.0864144e-09	3.6872247e-09	0.8605012	-2.013093e-17	0.23462576
1.9254692269662128e-10	1.0534927e-09	3.6872247e-09	0.8605968	-2.0130544e-17	0.23467062
1.9501564137882835e-10	8.888845e-10	3.753068e-09	0.8606857	-2.0130185e-17	0.2347106
1.9753374633867653e-10	6.58433e-10	4.016441e-09	0.86077195	-2.0129834e-17	0.23474751
2.0000247651502058e-10	1.218101e-09	4.0822843e-09	0.8608523	-2.0129503e-17	0.23478262
2.0252058084051323e-10	1.4156308e-09	4.1810493e-09	0.86093044	-2.0129179e-17	0.2348172
2.0503867926010631e-10	1.7942299e-09	3.8189114e-09	0.86100453	-2.0128871e-17	0.23484692
2.0750739570945812e-10	1.2510226e-09	3.7201462e-09	0.86107385	-2.0128583e-17	0.23487587
2.1002550027689528e-10	1.3827093e-09	3.2263217e-09	0.86114115	-2.0128299e-17	0.23490301
2.1254362081600643e-10	1.3827093e-09	3.4896948e-09	0.86120534	-2.0128027e-17	0.23492862
2.1501233840189468e-10	4.938247e-10	4.115206e-09	0.8612653	-2.0127774e-17	0.23495191
2.175304407973664e-10	4.938247e-10	3.6213814e-09	0.86132354	-2.0127526e-17	0.23497292
2.2004854635795246e-10	3.4567732e-10	3.7201462e-09	0.8613791	-2.0127288e-17	0.23499493
2.2251726471528176e-10	2.9629485e-10	3.753068e-09	0.8614311	-2.0127061e-17	0.2350177
2.250353735168921e-10	5.2674637e-10	3.2592433e-09	0.86148185	-2.0126845e-17	0.2350428
2.2750410386145612e-10	8.5596286e-10	3.9835193e-09	0.8615292	-2.012664e-17	0.23506404
2.300222113437288e-10	7.571979e-10	3.358008e-09	0.8615754	-2.012644e-17	0.23508501
2.325403194269148e-10	1.316866e-09	3.6213814e-09	0.86161953	-2.0126247e-17	0.23510472
2.3500904037081055e-10	1.5802392e-09	2.3703588e-09	0.86166084	-2.0126067e-17	0.23512264
2.375271470340671e-10	2.156368e-09	3.3250864e-09	0.86170113	-2.012589e-17	0.23514132
2.4004526187950344e-10	2.436202e-09	3.8189114e-09	0.8617397	-2.0125721e-17	0.23515743
2.425139854070553e-10	2.2057505e-09	4.213971e-09	0.86177576	-2.0125562e-17	0.23517253
2.45032086196607e-10	1.4814742e-09	4.411501e-09	0.8618109	-2.0125404e-17	0.23518863
2.475008044788746e-10	1.3827093e-09	4.2468926e-09	0.86184406	-2.012526e-17	0.2352032
2.500189143888615e-10	6.9135464e-10	3.7201462e-09	0.8618762	-2.0125116e-17	0.2352155
2.5253701507637723e-10	4.609031e-10	4.016441e-09	0.8619072	-2.0124977e-17	0.23522879
2.550057667007884e-10	5.432072e-10	3.6872247e-09	0.861936	-2.012485e-17	0.23524082
2.5752386080327317e-10	1.218101e-09	3.4238514e-09	0.86196434	-2.0124722e-17	0.23525333
2.60041954003523e-10	1.4814742e-09	2.9629483e-09	0.8619913	-2.0124601e-17	0.23526357
2.6251068737575496e-10	1.9094557e-09	3.4238514e-09	0.86201674	-2.0124487e-17	0.23527329
2.6502880602238047e-10	1.6131608e-09	4.2468926e-09	0.8620415	-2.0124375e-17	0.23528454
2.675469113370274e-10	7.2427625e-10	3.6213814e-09	0.8620653	-2.0124269e-17	0.23529246
2.700156256835642e-10	7.901196e-10	3.2263217e-09	0.8620876	-2.0124166e-17	0.23530142
2.7253371738067155e-10	1.0205711e-09	3.8847547e-09	0.8621094	-2.0124068e-17	0.23531112
2.7500243486569303e-10	9.218062e-10	2.99587e-09	0.86212987	-2.0123976e-17	0.23531854
2.77520529747598e-10	1.2510226e-09	3.1604783e-09	0.86214995	-2.0123887e-17	0.23532645
2.800385988585403e-10	1.7119257e-09	3.1604783e-09	0.8621691	-2.0123799e-17	0.23533362
2.825072978331318e-10	1.3497876e-09	2.8312617e-09	0.8621871	-2.0123716e-17	0.23534052
2.850253817236634e-10	1.679004e-09	2.1728288e-09	0.8622048	-2.0123637e-17	0.23534818
2.8754347628259456e-10	2.99587e-09	2.9300267e-09	0.8622218	-2.0123557e-17	0.23535381
2.900121838525786e-10	2.3703588e-09	4.016441e-09	0.8622376	-2.0123486e-17	0.23535945
2.925302674039401e-10	1.876534e-09	4.5761093e-09	0.86225307	-2.0123415e-17	0.2353666
2.9504834510466823e-10	1.4485525e-09	4.213971e-09	0.86226803	-2.0123346e-17	0.23537171
2.975170480665857e-10	1.3662484e-09	2.897105e-09	0.86228204	-2.0123281e-17	0.23537682
3.000351338080951e-10	9.547279e-10	2.3703588e-09	0.8622958	-2.0123218e-17	0.23538168
3.025038256518779e-10	1.4485525e-09	2.5678886e-09	0.8623086	-2.0123159e-17	0.23538627
3.050219090917779e-10	1.9423774e-09	2.897105e-09	0.86232126	-2.01231e-17	0.23539215
3.0753998349024374e-10	1.4814742e-09	3.1604783e-09	0.8623334	-2.0123048e-17	0.23539522
3.100086932565802e-10	7.901196e-10	2.9629483e-09	0.86234474	-2.0122993e-17	0.23539956
3.1252675807577135e-10	1.9094557e-09	3.1934e-09	0.8623559	-2.0122942e-17	0.23540519
3.1504484481681925e-10	1.9752988e-09	3.753068e-09	0.86236656	-2.0122894e-17	0.23540749
3.1751355646494833e-10	1.4814742e-09	3.6872247e-09	0.86237663	-2.0122848e-17	0.23541184
3.2003163009723514e-10	8.5596286e-10	3.8847547e-09	0.86238647	-2.0122803e-17	0.23541541
3.2250032421694453e-10	3.6213813e-10	3.358008e-09	0.8623958	-2.0122757e-17	0.23541847
3.2501838820975357e-10	1.316866e-09	2.2715938e-09	0.8624049	-2.0122717e-17	0.23542282
3.2753648033352364e-10	1.6131608e-09	2.2386721e-09	0.8624136	-2.0122679e-17	0.23542461
3.3000517378067787e-10	2.8312617e-09	2.0411421e-09	0.86242175	-2.0122637e-17	0.23542768
3.325232487689309e-10	3.2921648e-09	2.9629483e-09	0.8624298	-2.0122603e-17	0.23543201
3.350413223752791e-10	3.0287917e-09	3.4238514e-09	0.8624374	-2.0122565e-17	0.2354333
3.375100298384734e-10	2.4691236e-09	4.0493626e-09	0.86244464	-2.0122532e-17	0.23543637
3.4002809963598317e-10	1.7119257e-09	4.0822843e-09	0.86245185	-2.0122499e-17	0.23543918
3.4254617002201125e-10	1.6625432e-09	3.2263217e-09	0.8624587	-2.0122465e-17	0.23544097
3.4501487244950685e-10	1.4485525e-09	3.1934e-09	0.862465	-2.0122437e-17	0.23544352
3.475329496884461e-10	1.8106907e-09	2.99587e-09	0.86247134	-2.0122409e-17	0.23544557
3.500016394037867e-10	1.8106907e-09	3.094635e-09	0.8624772	-2.0122381e-17	0.23544762
3.52519710931419e-10	2.0740638e-09	2.3703588e-09	0.86248296	-2.0122355e-17	0.23545067
3.5503778736036676e-10	2.2386721e-09	2.5020452e-09	0.8624886	-2.0122331e-17	0.2354517
3.575064749078319e-10	3.2427825e-09	1.9423774e-09	0.8624938	-2.0122305e-17	0.23545347
3.6002454369313445e-10	4.1810493e-09	2.3703588e-09	0.8624989	-2.012228e-17	0.2354563
3.6254260156758313e-10	4.3456576e-09	2.8641833e-09	0.86250395	-2.0122259e-17	0.23545732
3.6501130665811796e-10	4.59257e-09	3.2263217e-09	0.8625084	-2.0122234e-17	0.23545961
3.6752937887009946e-10	4.5431876e-09	4.5431876e-09	0.862513	-2.0122216e-17	0.23546064
3.700474427392843e-10	4.312736e-09	5.069934e-09	0.86251736	-2.0122194e-17	0.2354619
3.725161354317188e-10	4.016441e-09	5.99174e-09	0.86252147	-2.0122174e-17	0.23546422
3.75034220365597e-10	2.3045155e-09	6.716016e-09	0.8625254	-2.0122154e-17	0.23546447
3.775029050456706e-10	1.679004e-09	6.2551133e-09	0.86252934	-2.0122136e-17	0.23546575
3.8002097100184324e-10	7.2427625e-10	6.8806245e-09	0.8625331	-2.0122121e-17	0.23546804
3.825390265858104e-10	3.2921648e-11	5.3003855e-09	0.86253655	-2.0122105e-17	0.23546855
3.850077163026859e-10	-3.292165e-10	5.3991505e-09	0.86253995	-2.012209e-17	0.23547009
3.8752578551102783e-10	-1.6460824e-10	4.411501e-09	0.8625432	-2.0122073e-17	0.23547111
3.9004384649904064e-10	-1.3168659e-10	3.917676e-09	0.86254644	-2.012206e-17	0.23547187
3.925125256455383e-10	3.950598e-10	3.1604783e-09	0.8625493	-2.0122045e-17	0.23547393
3.950305923397088e-10	6.58433e-10	2.897105e-09	0.8625523	-2.0122032e-17	0.23547342
3.975486629768421e-10	1.7119257e-09	2.3703588e-09	0.8625551	-2.0122017e-17	0.23547597
4.0001734970963175e-10	3.4238514e-09	1.4485525e-09	0.8625577	-2.0122006e-17	0.23547673
4.025354092109859e-10	4.213971e-09	1.3827093e-09	0.86256033	-2.0121992e-17	0.23547648
4.0500409314635725e-10	5.2016205e-09	1.4485525e-09	0.8625628	-2.0121982e-17	0.2354775
4.075221512640582e-10	5.79421e-09	1.5143958e-09	0.86256516	-2.0121972e-17	0.23547877
4.1004022413669913e-10	6.2221917e-09	2.2057505e-09	0.86256737	-2.0121961e-17	0.2354798
4.1250891253807085e-10	6.7818595e-09	2.633732e-09	0.8625695	-2.0121951e-17	0.23548107
4.1502697811842736e-10	6.946468e-09	2.5020452e-09	0.86257166	-2.012194e-17	0.23548006
4.1754502609404964e-10	7.4073707e-09	2.6995752e-09	0.8625737	-2.0121931e-17	0.23548158
4.200137114849886e-10	7.654283e-09	3.5884598e-09	0.8625756	-2.0121921e-17	0.23548312
4.2253176391517836e-10	7.7695095e-09	3.654303e-09	0.8625775	-2.0121915e-17	0.23548235
4.250004539905854e-10	8.427942e-09	4.0822843e-09	0.8625793	-2.0121903e-17	0.23548312
4.275185002273948e-10	8.625472e-09	4.7407176e-09	0.862581	-2.0121898e-17	0.23548415
4.3003656048107286e-10	8.9546885e-09	6.1234267e-09	0.8625827	-2.0121891e-17	0.23548466
4.3250523564900995e-10	8.329177e-09	7.4402924e-09	0.86258423	-2.0121881e-17	0.23548542
4.3502329208805526e-10	7.308606e-09	8.823002e-09	0.8625857	-2.0121873e-17	0.23548517
4.3754134799164765e-10	5.464994e-09	1.05020055e-08	0.8625872	-2.0121868e-17	0.23548645
4.40010025158667e-10	4.5267265e-09	1.1325047e-08	0.8625887	-2.012186e-17	0.23548721
4.425280899028855e-10	3.1604783e-09	1.2115167e-08	0.86259	-2.0121855e-17	0.23548645
4.450461606255522e-10	2.0905246e-09	1.257607e-08	0.8625913	-2.0121848e-17	0.23548771
4.4751482991262946e-10	1.5143958e-09	1.3399111e-08	0.86259246	-2.0121843e-17	0.23548822
4.500328813264785e-10	3.2921648e-11	1.27736e-08	0.8625937	-2.0121837e-17	0.23548849
4.5250155452407485e-10	-1.1028752e-09	1.3036973e-08	0.8625949	-2.0121832e-17	0.23548925
4.5501960798707244e-10	-2.518506e-09	1.3695406e-08	0.862596	-2.0121828e-17	0.235489
4.575376617565206e-10	-3.9505976e-09	1.4057544e-08	0.862597	-2.012182e-17	0.23549001
4.600063363472955e-10	-4.8065605e-09	1.3432032e-08	0.86259806	-2.0121817e-17	0.23549078
4.625243857315513e-10	-5.9588183e-09	1.1917637e-08	0.8625991	-2.0121812e-17	0.23548976
4.6504243689928255e-10	-5.892975e-09	1.1357969e-08	0.8625999	-2.0121807e-17	0.23549104
4.675111157370379e-10	-5.810671e-09	1.0666614e-08	0.8626009	-2.0121802e-17	0.23549104
4.700291632656337e-10	-5.530837e-09	1.0139868e-08	0.86260176	-2.01218e-17	0.23549078
4.725472123151555e-10	-6.3868e-09	9.97526e-09	0.8626027	-2.0121795e-17	0.2354918
4.750158922024584e-10	-7.473214e-09	9.5802e-09	0.86260337	-2.012179e-17	0.23549129
4.775339348577305e-10	-7.1769195e-09	8.131647e-09	0.8626042	-2.0121785e-17	0.23549205
4.800026131177695e-10	-6.3538783e-09	7.539057e-09	0.8626049	-2.0121784e-17	0.23549257
4.825206599093947e-10	-7.012311e-09	7.308606e-09	0.8626057	-2.0121779e-17	0.23549205
4.850386963081045e-10	-7.242763e-09	6.5184866e-09	0.86260635	-2.0121779e-17	0.2354936
4.875073755857976e-10	-6.650173e-09	5.333307e-09	0.862607	-2.0121774e-17	0.2354931
4.900254237496096e-10	-6.2221917e-09	5.1028555e-09	0.86260754	-2.012177e-17	0.23549257
4.925434719806822e-10	-6.0575833e-09	4.9053255e-09	0.86260825	-2.012177e-17	0.2354936
4.950121624433672e-10	-5.9258967e-09	4.872404e-09	0.8626088	-2.0121767e-17	0.2354936
4.975301971813551e-10	-6.18927e-09	5.464994e-09	0.8626093	-2.0121764e-17	0.23549385
5.000482375959017e-10	-6.617251e-09	4.609031e-09	0.8626099	-2.0121759e-17	0.2354941
5.025169079513215e-10	-6.7818595e-09	2.8312617e-09	0.86261046	-2.0121759e-17	0.23549385
5.050349525663244e-10	-5.8271317e-09	1.9423774e-09	0.86261094	-2.0121757e-17	0.23549514
5.075036446532379e-10	-4.609031e-09	1.1193361e-09	0.8626114	-2.0121756e-17	0.23549461
5.100216763654526e-10	-3.094635e-09	1.316866e-09	0.86261195	-2.0121752e-17	0.23549436
5.125397189222663e-10	-2.8312617e-09	1.0205711e-09	0.8626124	-2.0121749e-17	0.23549488
5.150083901061059e-10	-2.0740638e-09	5.2674637e-10	0.8626128	-2.0121747e-17	0.23549488
5.175264286489255e-10	-1.777769e-09	8.5596286e-10	0.86261314	-2.0121746e-17	0.23549461
5.200444626342345e-10	-8.724237e-10	1.0205711e-09	0.86261356	-2.0121742e-17	0.23549539
5.22513121957349e-10	-3.6213813e-10	6.9135464e-10	0.862614	-2.012174e-17	0.23549461
5.250311729151933e-10	-3.950598e-10	1.1193361e-09	0.8626143	-2.0121742e-17	0.23549539
5.275492041033141e-10	-1.218101e-09	1.2839443e-09	0.8626147	-2.0121739e-17	0.23549539
5.300178872101846e-10	-1.316866e-09	7.901196e-10	0.86261505	-2.0121739e-17	0.23549564
5.325359079655544e-10	-5.5966803e-10	3.292165e-10	0.86261535	-2.0121738e-17	0.2354959
5.350045707062674e-10	3.950598e-10	0	0.8626156	-2.0121736e-17	0.2354959
5.375226234239505e-10	1.0205711e-09	1.0864144e-09	0.86261594	-2.0121734e-17	0.2354959
5.400406482584506e-10	8.888845e-10	1.1851794e-09	0.86261624	-2.0121733e-17	0.2354959
5.425093174903103e-10	3.950598e-10	1.1193361e-09	0.8626165	-2.0121733e-17	0.2354964
5.450273472861093e-10	1.1687186e-09	3.6213813e-10	0.8626167	-2.012173e-17	0.23549615
5.475453977364659e-10	1.8436124e-09	5.2674637e-10	0.862617	-2.0121728e-17	0.23549615
5.500140592853342e-10	2.534967e-09	6.255113e-10	0.86261725	-2.0121728e-17	0.2354964
5.525320938568011e-10	2.814801e-09	1.1851794e-09	0.86261755	-2.0121726e-17	0.23549718
5.550007589652683e-10	2.6008102e-09	1.5802392e-09	0.8626177	-2.0121726e-17	0.2354964
5.575187928891827e-10	2.353898e-09	1.1522577e-09	0.86261785	-2.0121724e-17	0.23549692
5.60036814908132e-10	2.3045155e-09	1.1851794e-09	0.86261815	-2.0121723e-17	0.23549666
5.62505488277659e-10	2.1399071e-09	1.777769e-09	0.8626183	-2.0121723e-17	0.2354964
5.650235069087623e-10	2.732497e-09	2.0411421e-09	0.86261857	-2.0121721e-17	0.23549718
5.675415447375468e-10	2.7983402e-09	2.633732e-09	0.86261874	-2.0121721e-17	0.23549718
5.700102000246205e-10	2.6666536e-09	3.0287917e-09	0.86261886	-2.012172e-17	0.2354964
5.725282493824235e-10	2.436202e-09	2.7654186e-09	0.86261904	-2.0121718e-17	0.23549768
5.750462687067247e-10	2.5020452e-09	2.3703588e-09	0.8626193	-2.012172e-17	0.23549743
5.775149223864775e-10	2.8641833e-09	2.6995752e-09	0.8626194	-2.012172e-17	0.23549718
5.800329505064731e-10	3.094635e-09	3.1604783e-09	0.86261946	-2.0121716e-17	0.23549692
5.825016168599955e-10	2.534967e-09	3.5226164e-09	0.8626197	-2.0121718e-17	0.23549692
5.850196481003302e-10	3.1275567e-09	3.555538e-09	0.8626198	-2.0121716e-17	0.23549743
5.875376765154999e-10	2.7654186e-09	4.4773443e-09	0.8626199	-2.0121714e-17	0.23549718
5.900063309506557e-10	2.4032802e-09	4.5761093e-09	0.8626201	-2.0121713e-17	0.23549743
5.925243520360251e-10	2.633732e-09	3.8189114e-09	0.86262023	-2.0121713e-17	0.23549819
5.950423688650623e-10	2.897105e-09	4.4444226e-09	0.8626203	-2.0121711e-17	0.23549743
5.975110353854409e-10	2.3045155e-09	5.530837e-09	0.8626203	-2.012171e-17	0.23549743
6.00029064765857e-10	1.5473175e-09	5.5966805e-09	0.8626205	-2.012171e-17	0.23549819
6.025470896919725e-10	1.3827093e-09	4.872404e-09	0.86262065	-2.0121711e-17	0.23549718
6.0501574591024e-10	8.5596286e-10	4.5431876e-09	0.8626208	-2.012171e-17	0.23549768
6.075337720481669e-10	1.8106907e-09	4.7407176e-09	0.86262083	-2.0121708e-17	0.23549794
6.100024279912976e-10	1.7448474e-09	4.5761093e-09	0.86262095	-2.012171e-17	0.23549743
6.125204673341933e-10	1.6460824e-09	5.069934e-09	0.86262095	-2.012171e-17	0.23549819
6.150384996883475e-10	7.2427625e-10	4.5431876e-09	0.8626211	-2.0121708e-17	0.23549768
6.175071509414909e-10	9.38267e-10	4.609031e-09	0.8626212	-2.0121708e-17	0.23549768
6.200251806255106e-10	1.316866e-09	4.7407176e-09	0.8626213	-2.0121708e-17	0.23549844
6.225431973772177e-10	6.255113e-10	4.971169e-09	0.8626213	-2.0121706e-17	0.23549743
6.250118515719642e-10	6.9135464e-10	4.2468926e-09	0.8626215	-2.0121706e-17	0.23549768
6.275298708092028e-10	5.5966803e-10	3.8189114e-09	0.8626215	-2.0121704e-17	0.23549768
6.300478860933345e-10	1.0864144e-09	3.6872247e-09	0.8626215	-2.0121704e-17	0.23549794
6.325165397312538e-10	7.2427625e-10	4.1810493e-09	0.86262167	-2.0121704e-17	0.23549844
6.350345509396187e-10	8.888845e-10	3.753068e-09	0.8626217	-2.0121706e-17	0.23549768
6.375032033029308e-10	1.3004051e-09	3.7859897e-09	0.8626217	-2.0121706e-17	0.23549794
6.400212159294358e-10	1.5802392e-09	4.115206e-09	0.86262184	-2.0121704e-17	0.23549844
6.425392337766385e-10	7.571979e-10	4.3785793e-09	0.86262184	-2.0121704e-17	0.23549794
6.450079019689684e-10	1.0534927e-09	4.1481276e-09	0.8626219	-2.0121706e-17	0.23549819
6.475259278347252e-10	6.9135464e-10	3.6872247e-09	0.86262196	-2.0121706e-17	0.23549844
6.500439532059198e-10	9.711887e-10	3.8847547e-09	0.86262196	-2.0121704e-17	0.23549768
6.525125986948018e-10	7.901196e-10	4.1481276e-09	0.86262214	-2.0121704e-17	0.23549819
6.550306162786507e-10	1.5473175e-09	4.016441e-09	0.86262214	-2.0121704e-17	0.23549768
6.575486482740672e-10	1.5143958e-09	3.9505976e-09	0.8626222	-2.0121704e-17	0.2354987
6.600172922891483e-10	1.4485525e-09	4.1481276e-09	0.86262226	-2.0121704e-17	0.23549819
6.625353139705735e-10	1.0864144e-09	3.851833e-09	0.86262226	-2.0121703e-17	0.23549819
6.65003962174233e-10	1.5473175e-09	4.707796e-09	0.8626223	-2.0121703e-17	0.23549819
6.675219871303658e-10	1.316866e-09	4.938247e-09	0.86262226	-2.0121703e-17	0.23549794
6.700400030281122e-10	9.547279e-10	4.2468926e-09	0.8626224	-2.0121701e-17	0.23549844
6.725086606406643e-10	1.3662484e-09	3.9505976e-09	0.8626224	-2.0121701e-17	0.23549819
6.750266870546855e-10	9.218062e-10	3.753068e-09	0.86262244	-2.0121701e-17	0.23549794
6.775446793860242e-10	1.0370319e-09	4.1481276e-09	0.86262244	-2.0121701e-17	0.23549844
6.800133309808808e-10	6.4197214e-10	4.115206e-09	0.8626225	-2.0121701e-17	0.23549922
6.825313555570515e-10	9.547279e-10	4.0822843e-09	0.8626225	-2.0121701e-17	0.23549794
6.850000076421685e-10	5.5966803e-10	4.213971e-09	0.8626226	-2.0121701e-17	0.23549844
6.875180178743731e-10	2.9629485e-10	3.1604783e-09	0.8626226	-2.0121701e-17	0.2354987
6.900360296991954e-10	9.876494e-10	2.9300267e-09	0.8626226	-2.0121701e-17	0.2354987
6.925046757447346e-10	1.1851794e-09	3.0287917e-09	0.8626227	-2.01217e-17	0.23549844
6.950226928518695e-10	1.7942299e-09	2.897105e-09	0.8626227	-2.0121703e-17	0.23549844
6.975407118991275e-10	1.3827093e-09	3.1934e-09	0.8626227	-2.0121703e-17	0.23549844
7.0000936261444e-10	1.3827093e-09	3.4896948e-09	0.8626227	-2.01217e-17	0.2354987
7.025273844760326e-10	1.0205711e-09	3.2921648e-09	0.8626227	-2.0121701e-17	0.23549819
7.050454019108763e-10	8.888845e-10	3.1604783e-09	0.8626227	-2.01217e-17	0.23549895
7.075140485586824e-10	8.230412e-10	3.094635e-09	0.86262274	-2.0121698e-17	0.2354987
7.100320679113244e-10	7.901196e-10	2.9629483e-09	0.86262274	-2.0121703e-17	0.23549819
7.125006908345457e-10	1.1522577e-09	2.732497e-09	0.86262274	-2.0121701e-17	0.23549819
7.150187046338402e-10	1.0205711e-09	2.8312617e-09	0.8626228	-2.01217e-17	0.23549844
7.17536727809072e-10	1.2345618e-09	2.897105e-09	0.8626228	-2.0121703e-17	0.23549819
7.200053801466056e-10	1.1522577e-09	3.358008e-09	0.8626228	-2.0121698e-17	0.2354987
7.225234029945477e-10	1.1687186e-09	2.7654186e-09	0.8626228	-2.0121701e-17	0.23549819
7.250413957251009e-10	1.7448474e-09	3.2921648e-09	0.8626229	-2.01217e-17	0.23549895
7.275100399414236e-10	1.1193361e-09	3.0287917e-09	0.8626229	-2.0121701e-17	0.23549895
7.30028056710219e-10	5.5966803e-10	3.1275567e-09	0.8626229	-2.0121701e-17	0.23549819
7.325460744809084e-10	8.888845e-10	2.3045155e-09	0.8626229	-2.0121701e-17	0.23549895
7.350147149560477e-10	1.4156308e-09	2.1728288e-09	0.8626229	-2.0121701e-17	0.2354987
7.375327237289002e-10	1.8106907e-09	2.3374371e-09	0.8626229	-2.0121701e-17	0.2354987
7.40001374492543e-10	1.4156308e-09	2.6995752e-09	0.8626229	-2.0121701e-17	0.2354987
7.425193757619451e-10	2.1728288e-09	2.4032802e-09	0.8626229	-2.0121701e-17	0.23549844
7.450373877114948e-10	2.1399071e-09	2.0082205e-09	0.86262304	-2.01217e-17	0.2354987
7.475060131233219e-10	2.6666536e-09	2.5678886e-09	0.8626229	-2.0121698e-17	0.23549922
7.500240346120063e-10	2.436202e-09	2.3374371e-09	0.86262304	-2.0121701e-17	0.23549844
7.525420691348683e-10	2.436202e-09	2.5678886e-09	0.86262304	-2.0121698e-17	0.23549922
7.550106871256946e-10	2.6008102e-09	2.6995752e-09	0.86262304	-2.0121701e-17	0.23549819
7.575286926891271e-10	1.8436124e-09	2.4691236e-09	0.86262304	-2.01217e-17	0.23549895
7.600467125504939e-10	2.4032802e-09	2.1728288e-09	0.86262316	-2.0121701e-17	0.2354987
7.625153528218813e-10	2.2057505e-09	2.2386721e-09	0.86262316	-2.0121698e-17	0.23549794
7.650333637724657e-10	2.2386721e-09	2.534967e-09	0.86262316	-2.01217e-17	0.23549895
7.675019987164331e-10	2.4032802e-09	2.7654186e-09	0.86262316	-2.0121698e-17	0.23549895
7.70020013643537e-10	2.353898e-09	2.5020452e-09	0.86262316	-2.01217e-17	0.23549844
7.725380301933315e-10	2.2715938e-09	2.7983402e-09	0.86262316	-2.0121698e-17	0.2354987
7.750066690306349e-10	3.2263217e-09	2.3374371e-09	0.86262316	-2.0121698e-17	0.23549819
7.775246788143687e-10	3.2592433e-09	2.4691236e-09	0.86262316	-2.01217e-17	0.23549844
7.800426776274883e-10	3.1934e-09	2.9629483e-09	0.86262316	-2.0121698e-17	0.2354987
7.82511328570898e-10	3.2592433e-09	2.99587e-09	0.8626232	-2.01217e-17	0.23549922
7.850293414805448e-10	3.5390773e-09	3.4238514e-09	0.8626232	-2.01217e-17	0.2354987
7.875473408582093e-10	3.2592433e-09	3.6872247e-09	0.86262316	-2.01217e-17	0.2354987
7.900159755521614e-10	2.8806442e-09	3.7859897e-09	0.86262316	-2.01217e-17	0.23549819
7.925339835807831e-10	2.1399071e-09	3.753068e-09	0.86262316	-2.01217e-17	0.23549922
7.950026152394515e-10	2.2057505e-09	3.8847547e-09	0.86262316	-2.01217e-17	0.2354987
7.975206196338894e-10	2.534967e-09	3.0287917e-09	0.86262316	-2.01217e-17	0.23549844
8.000386286853711e-10	2.897105e-09	3.4896948e-09	0.86262316	-2.01217e-17	0.2354987
8.025072713057935e-10	3.4403123e-09	4.1481276e-09	0.86262316	-2.01217e-17	0.2354987
8.050252693716564e-10	3.4238514e-09	4.4444226e-09	0.86262316	-2.01217e-17	0.2354987
8.075432807341014e-10	3.2427825e-09	4.6748743e-09	0.8626232	-2.01217e-17	0.2354987
8.100119184447835e-10	3.094635e-09	4.938247e-09	0.86262316	-2.01217e-17	0.2354987
8.125299278702688e-10	2.436202e-09	4.5431876e-09	0.8626232	-2.01217e-17	0.23549844
8.150479401415895e-10	2.2715938e-09	4.2798143e-09	0.8626232	-2.01217e-17	0.23549819
8.175165687946807e-10	2.2386721e-09	3.917676e-09	0.8626232	-2.01217e-17	0.23549844
8.200345633271918e-10	2.5678886e-09	4.2798143e-09	0.8626232	-2.01217e-17	0.23549895
8.225032075966404e-10	2.436202e-09	4.0822843e-09	0.86262316	-2.01217e-17	0.2354987
8.250212137496996e-10	2.4691236e-09	4.609031e-09	0.86262316	-2.01217e-17	0.2354987
8.275392232686122e-10	2.0411421e-09	5.135777e-09	0.8626232	-2.01217e-17	0.2354987
8.30007851560507e-10	1.316866e-09	4.9053255e-09	0.8626232	-2.01217e-17	0.23549844
8.325258624347914e-10	1.0205711e-09	4.1481276e-09	0.8626232	-2.01217e-17	0.2354987
8.350438732624988e-10	5.925897e-10	4.8065605e-09	0.8626232	-2.01217e-17	0.2354987
8.375125098255257e-10	1.0864144e-09	4.4773443e-09	0.8626232	-2.01217e-17	0.23549844
8.400305238039123e-10	1.7448474e-09	4.9053255e-09	0.8626232	-2.01217e-17	0.2354987
8.425485201728322e-10	1.316866e-09	4.213971e-09	0.8626232	-2.01217e-17	0.23549819
8.450171394272603e-10	6.58433e-10	4.213971e-09	0.8626232	-2.01217e-17	0.23549922
8.475351624678133e-10	3.292165e-10	3.2263217e-09	0.8626232	-2.01217e-17	0.23549895
8.5000380166378e-10	1.316866e-09	2.6995752e-09	0.8626232	-2.01217e-17	0.23549844
8.525217900971749e-10	1.9423774e-09	3.2592433e-09	0.8626232	-2.01217e-17	0.2354987
8.550398120004805e-10	2.0740638e-09	3.555538e-09	0.8626232	-2.01217e-17	0.2354987
8.575084300976472e-10	2.1234463e-09	4.1810493e-09	0.8626232	-2.01217e-17	0.23549819
8.600264354878633e-10	1.8436124e-09	4.016441e-09	0.8626232	-2.01217e-17	0.2354987
8.625444368903162e-10	1.7448474e-09	4.312736e-09	0.8626232	-2.01217e-17	0.23549794
8.650130686176511e-10	1.8106907e-09	4.213971e-09	0.8626232	-2.01217e-17	0.2354987
8.675310564299844e-10	1.7119257e-09	4.3456576e-09	0.8626232	-2.01217e-17	0.23549895
8.700490720839878e-10	1.218101e-09	4.5431876e-09	0.8626232	-2.01217e-17	0.2354987
8.725177132322296e-10	1.5143958e-09	4.2798143e-09	0.8626232	-2.01217e-17	0.23549844
8.750357043598915e-10	1.6460824e-09	3.6872247e-09	0.8626232	-2.01217e-17	0.2354987