# t (s)	mx ()	my ()	mz ()	E_total (J)	MaxAngle (rad)
0	1.2427922e-09	7.901196e-10	0.9795362	-2.0725773e-17	0.26627314
2.51463668450987e-12	1.3415572e-09	1.2839443e-09	0.9707323	-2.0685896e-17	0.2407626
5.042062401321677e-12	1.3333268e-09	2.1399071e-09	0.962199	-2.0598771e-17	0.23052478
7.517016839643208e-12	9.876495e-11	4.4444226e-09	0.9553543	-2.047244e-17	0.22750488
1.0040378318166593e-11	-2.0411421e-09	5.0040905e-09	0.9509233	-2.0310523e-17	0.22532979
1.2512855478851547e-11	-5.79421e-09	5.267464e-09	0.94927007	-2.0125668e-17	0.22494665
1.5033739885458742e-11	-1.0600771e-08	3.753068e-09	0.9498587	-1.9905446e-17	0.22214127
1.7504499553678956e-11	-1.5407332e-08	-5.2674637e-10	0.9515835	-1.9641468e-17	0.2204124
2.0024175114752998e-11	-2.0115127e-08	-8.823002e-09	0.9520488	-1.9297639e-17	0.21556501
2.2543615595925994e-11	-2.074887e-08	-2.1464915e-08	0.945795	-1.8881695e-17	0.2106053
2.5013475013054108e-11	-1.4399106e-08	-3.397514e-08	0.9248929	-1.8540254e-17	0.21630804
2.7532605019441205e-11	1.7119257e-09	-4.0954532e-08	0.8871462	-1.8485386e-17	0.2515016
3.000220764691854e-11	1.8041064e-08	-3.9374292e-08	0.84956217	-1.8792963e-17	0.24090455
3.2520972604519864e-11	3.272412e-08	-3.0600674e-08	0.81615865	-1.9209564e-17	0.20642738
3.5039754136761896e-11	4.2798142e-08	-1.4131618e-08	0.78611535	-1.9511548e-17	0.19881557
3.750918829892818e-11	4.490513e-08	2.633732e-09	0.7607534	-1.969381e-17	0.2022297
4.002746970864789e-11	3.8699397e-08	1.5835314e-08	0.7399512	-1.9802143e-17	0.20838638
4.2545488971105694e-11	2.7292046e-08	2.4098647e-08	0.72460085	-1.9860774e-17	0.21141577
4.501430654282358e-11	1.6872345e-08	2.5810573e-08	0.71446186	-1.9888987e-17	0.21196866
4.7532503005923105e-11	7.851813e-09	2.278178e-08	0.7086044	-1.9901463e-17	0.21206467
5.000126546220649e-11	1.8436124e-09	1.8699497e-08	0.70674014	-1.9906412e-17	0.21153276
5.2519370625787745e-11	-1.0041102e-09	1.5407332e-08	0.707934	-1.9909445e-17	0.21159577
5.5037523470547627e-11	-3.1934e-09	1.1720107e-08	0.711586	-1.9913523e-17	0.2118587
5.7506334419012456e-11	-3.753068e-09	1.0008181e-08	0.71719	-1.9920079e-17	0.21120377
6.002452589346918e-11	-3.835372e-09	7.901195e-09	0.72461367	-1.9930019e-17	0.21224414
6.254271863040002e-11	-3.2592433e-09	6.4526433e-09	0.7333364	-1.9943334e-17	0.2114896
6.501154120492859e-11	-3.4896948e-09	5.267464e-09	0.7427678	-1.9959374e-17	0.21289621
6.752974557407017e-11	-2.1069855e-09	4.213971e-09	0.75298446	-1.9978258e-17	0.213237
7.004794763173134e-11	-1.2839443e-09	3.555538e-09	0.7635595	-1.9999007e-17	0.21309528
7.251678654072774e-11	-1.1193361e-09	2.5678886e-09	0.77404714	-2.0020398e-17	0.2143534
7.503499887669731e-11	-4.2798143e-10	2.534967e-09	0.7846218	-2.0042419e-17	0.21592169
7.750380301648492e-11	2.9629485e-10	2.897105e-09	0.7946262	-2.0063365e-17	0.21723753
8.002198843780753e-11	1.0864144e-09	2.6995752e-09	0.80422676	-2.0083254e-17	0.21820994
8.254016666162977e-11	1.9999902e-09	2.2263265e-09	0.8130154	-2.0100974e-17	0.21987687
8.50089801329917e-11	3.4896948e-09	2.0329118e-09	0.820698	-2.0115815e-17	0.22223079
8.752714135179589e-11	4.938247e-09	2.534967e-09	0.82750094	-2.0128239e-17	0.22288807
9.004530152753972e-11	6.0575833e-09	4.1975103e-09	0.8332555	-2.0138043e-17	0.22516967
9.251406826266773e-11	5.5966805e-09	5.7612883e-09	0.8379435	-2.0145372e-17	0.22512962
9.503220623076835e-11	4.7407176e-09	5.7448277e-09	0.8418678	-2.0150828e-17	0.2271587
9.750094498864692e-11	3.9999803e-09	4.2798143e-09	0.84501	-2.0154505e-17	0.22789039
1.000190746369955e-10	4.6419526e-09	4.1892796e-09	0.8476348	-2.0156848e-17	0.22779857
1.0253718011695462e-10	5.267464e-09	4.4773443e-09	0.84979886	-2.0158037e-17	0.22863214
1.0500592468289465e-10	4.3456576e-09	5.464994e-09	0.8515737	-2.0158329e-17	0.22954291
1.0752402807923988e-10	3.5226164e-09	5.135777e-09	0.85311115	-2.015796e-17	0.23009892
1.1004213654792784e-10	2.897105e-09	5.5966805e-09	0.85443544	-2.0157081e-17	0.23045643
1.1251086137360774e-10	3.4073906e-09	5.2016205e-09	0.8555726	-2.0155872e-17	0.2306364
1.150289789812817e-10	2.9629483e-09	6.1234267e-09	0.8566028	-2.0154385e-17	0.23068646
1.1754708365269834e-10	2.436202e-09	6.6830945e-09	0.8575286	-2.0152724e-17	0.23064162
1.2001580688497847e-10	8.230412e-10	5.4979155e-09	0.85835433	-2.0150982e-17	0.23107456
1.2253390094078228e-10	6.748938e-10	3.9505976e-09	0.8591278	-2.0149124e-17	0.23156878
1.250026334872826e-10	9.547279e-10	3.2263217e-09	0.8598299	-2.0147256e-17	0.23196529
1.2752073461780482e-10	1.4814742e-09	2.897105e-09	0.8604975	-2.0145327e-17	0.2322972
1.3003884335989642e-10	2.633732e-09	4.411501e-09	0.8611232	-2.0143378e-17	0.2325632
1.3250756124393882e-10	2.0905246e-09	5.2016205e-09	0.8617015	-2.0141464e-17	0.23281288
1.3502565323293066e-10	2.436202e-09	4.2798143e-09	0.86226004	-2.0139512e-17	0.23303652
1.3754375312892725e-10	1.6296217e-09	4.9053255e-09	0.8627908	-2.013757e-17	0.23322047
1.400124777134131e-10	1.3497876e-09	4.839482e-09	0.8632873	-2.0135666e-17	0.23336254
1.425305795629816e-10	1.4156308e-09	4.7407176e-09	0.8637722	-2.0133737e-17	0.23347488
1.4504868585890774e-10	1.2510226e-09	4.2468926e-09	0.86423767	-2.0131816e-17	0.23355834
1.4751741558191617e-10	1.218101e-09	4.609031e-09	0.8646772	-2.0129937e-17	0.23361449
1.5003551593125462e-10	9.218062e-10	4.5761093e-09	0.86511	-2.012803e-17	0.23364872
1.5250424466328812e-10	1.1193361e-09	4.6748743e-09	0.86552083	-2.0126166e-17	0.23366056
1.5502233941805218e-10	3.950598e-10	4.5761093e-09	0.86592734	-2.0124269e-17	0.23365077
1.5754043044115438e-10	1.3168659e-10	3.2921648e-09	0.8663229	-2.0122371e-17	0.23363559
1.6000915235991246e-10	9.218062e-10	3.7859897e-09	0.8667007	-2.0120512e-17	0.23361629
1.6252726268503802e-10	8.5596286e-10	3.753068e-09	0.86707735	-2.0118614e-17	0.23358048
1.6504535719001821e-10	7.2427625e-10	3.358008e-09	0.86744606	-2.0116712e-17	0.23352794
1.6751407865029818e-10	9.218062e-10	3.2263217e-09	0.8678006	-2.0114839e-17	0.23346226
1.7003216250124834e-10	1.3497876e-09	3.5884598e-09	0.86815614	-2.0112921e-17	0.23338057
1.7250089235733763e-10	1.0534927e-09	4.0822843e-09	0.8684994	-2.0111027e-17	0.23328699
1.750189957572363e-10	6.9135464e-10	4.411501e-09	0.86884505	-2.0109083e-17	0.23318024
1.7753708966187574e-10	2.9629485e-10	4.1481276e-09	0.86918676	-2.010712e-17	0.23305638
1.8000581194791398e-10	1.3168659e-10	3.8847547e-09	0.86951846	-2.0105179e-17	0.23292473
1.8252389941142414e-10	2.6337318e-10	4.1481276e-09	0.8698544	-2.0103172e-17	0.23277853
1.850419910804951e-10	5.925897e-10	4.213971e-09	0.8701884	-2.010114e-17	0.23261672
1.8751072689440431e-10	1.3168659e-10	4.7407176e-09	0.8705146	-2.0099117e-17	0.23244679
1.9002882886482985e-10	-4.609031e-10	5.333307e-09	0.87084645	-2.0097023e-17	0.23225912
1.9254692039097043e-10	-4.609031e-10	5.5966805e-09	0.87117845	-2.0094889e-17	0.23205912
1.9501564710607293e-10	-8.5596286e-10	4.6748743e-09	0.8715041	-2.0092755e-17	0.23184912
1.975337505654512e-10	-1.3168659e-10	4.4773443e-09	0.8718376	-2.0090531e-17	0.2316176
2.000024697127558e-10	-3.292165e-10	4.609031e-09	0.8721663	-2.0088303e-17	0.23137783
2.0252055797560747e-10	-3.292165e-10	4.4773443e-09	0.87250376	-2.008597e-17	0.23111907
2.0503864386075243e-10	-3.6213813e-10	4.609031e-09	0.87284434	-2.008358e-17	0.2308397
2.0750738016849372e-10	3.292165e-10	4.609031e-09	0.8731819	-2.0081164e-17	0.23055112
2.1002547048772573e-10	3.292165e-10	5.7283667e-09	0.87353045	-2.007863e-17	0.2302366
2.1254357136772172e-10	-1.975299e-10	6.0575833e-09	0.87388414	-2.007601e-17	0.22990231
2.1501228931248494e-10	-1.0534927e-09	5.530837e-09	0.87423635	-2.007335e-17	0.22955365
2.1753040291196232e-10	-1.2839443e-09	4.7407176e-09	0.8746026	-2.007054e-17	0.22917351
2.2004850731561857e-10	-1.0205711e-09	4.6748743e-09	0.8749763	-2.0067617e-17	0.22877042
2.2251721803815384e-10	-7.901196e-10	4.8065605e-09	0.8753509	-2.0064632e-17	0.22834794
2.2503531599360203e-10	-8.5596286e-10	4.8065605e-09	0.8757423	-2.0061458e-17	0.22788537
2.2750403701447945e-10	-9.876494e-10	4.5431876e-09	0.8761365	-2.0058197e-17	0.22740337
2.3002213635194707e-10	-1.0534927e-09	5.0040905e-09	0.87655014	-2.0054711e-17	0.22687559
2.3254023419690378e-10	-1.6460824e-09	4.938247e-09	0.8769769	-2.0051043e-17	0.22630809
2.3500894876208986e-10	-1.0534927e-09	5.3991505e-09	0.8774094	-2.0047252e-17	0.22571148
2.3752705566357315e-10	-1.5143958e-09	5.267464e-09	0.87786645	-2.004316e-17	0.22545381
2.400451508451329e-10	-1.8436124e-09	5.6625233e-09	0.87834144	-2.003882e-17	0.2252767
2.4251388193084644e-10	-2.0740638e-09	5.333307e-09	0.8788262	-2.003429e-17	0.22506607
2.4503197746937266e-10	-2.1728288e-09	5.069934e-09	0.8793426	-2.0029353e-17	0.22480978
2.475007193590296e-10	-2.897105e-09	5.0040905e-09	0.87987256	-2.0024173e-17	0.22450797
2.5001881601966567e-10	-2.7654186e-09	5.0040905e-09	0.8804401	-2.0018489e-17	0.22414249
2.525369167871403e-10	-3.094635e-09	5.135777e-09	0.8810382	-2.0012348e-17	0.2237125
2.5500564728530685e-10	-3.8189114e-09	4.3456576e-09	0.8816574	-2.0005816e-17	0.223216
2.5752374512329524e-10	-3.8847547e-09	4.6748743e-09	0.88232684	-1.9998565e-17	0.22262312
2.6004184581103163e-10	-4.213971e-09	4.411501e-09	0.8830392	-1.9990621e-17	0.221925
2.6251057229629553e-10	-4.0822843e-09	4.609031e-09	0.8837845	-1.9982055e-17	0.22112283
2.6502868463762044e-10	-4.7407176e-09	4.6748743e-09	0.88459903	-1.9972387e-17	0.22023076
2.675467804375894e-10	-4.938247e-09	5.3991505e-09	0.8854759	-1.996162e-17	0.2201306
2.700155034462816e-10	-6.3538783e-09	5.0040905e-09	0.8864046	-1.9949798e-17	0.2199318
2.72533612168464e-10	-7.3744495e-09	4.411501e-09	0.8874323	-1.9936196e-17	0.21957196
2.7500236400026555e-10	-8.164569e-09	3.4238514e-09	0.88853073	-1.9921039e-17	0.21902509
2.77520468122736e-10	-8.230412e-09	2.5678886e-09	0.8897582	-1.9903317e-17	0.21821325
2.800385723660872e-10	-8.098725e-09	2.897105e-09	0.89111084	-1.9882791e-17	0.21707182
2.8250731853655267e-10	-9.481435e-09	1.9752988e-09	0.8925785	-1.9859276e-17	0.21643881
2.850254379231101e-10	-1.1259204e-08	1.0534927e-09	0.8942434	-1.9830944e-17	0.21639606
2.8754354940400765e-10	-1.27736e-08	-5.925897e-10	0.89610624	-1.9797005e-17	0.2158858
2.900123090596881e-10	-1.3629562e-08	-2.5020452e-09	0.8981553	-1.9756698e-17	0.21472521
2.925304449945128e-10	-1.5736548e-08	-4.411501e-09	0.9005052	-1.9706167e-17	0.21415745
2.950485751522308e-10	-1.8238593e-08	-8.559629e-09	0.9031476	-1.9642969e-17	0.21417512
2.975173468172086e-10	-1.9292086e-08	-1.3102816e-08	0.90603584	-1.9564408e-17	0.21290185
3.000354854275872e-10	-2.077356e-08	-1.8699497e-08	0.90925634	-1.9461135e-17	0.21316713
3.025042851288337e-10	-2.2320878e-08	-2.5678887e-08	0.91255546	-1.9328706e-17	0.21251757
3.050224526297227e-10	-2.3012232e-08	-3.6674717e-08	0.9157117	-1.9149959e-17	0.21214792
3.0754062298492335e-10	-2.0707716e-08	-5.1357773e-08	0.9178374	-1.8912239e-17	0.21204032
3.1000944294451486e-10	-1.4683056e-08	-6.808197e-08	0.91730714	-1.860913e-17	0.21183091
3.12527645000049e-10	-1.0534927e-09	-8.5991346e-08	0.9112759	-1.8233923e-17	0.21428195
3.150458670017441e-10	2.0722121e-08	-9.9160005e-08	0.89646566	-1.7851302e-17	0.22729231
3.175147205201492e-10	4.8658197e-08	-1.119336e-07	0.8733274	-1.7625786e-17	0.25572422
3.2003296744916253e-10	8.981026e-08	-1.3168659e-07	0.8446865	-1.7778758e-17	0.23313458
3.225018491187394e-10	1.4380176e-07	-1.17530284e-07	0.8127995	-1.823093e-17	0.2029522
3.2502023439039383e-10	1.7560407e-07	-5.3629364e-08	0.7770841	-1.8704299e-17	0.19601242
3.2753892594989534e-10	1.6697861e-07	2.3308527e-08	0.7410706	-1.9068e-17	0.20027754
3.3000828356105247e-10	1.333656e-07	7.993376e-08	0.70861125	-1.9318474e-17	0.20647477
3.3252640316778936e-10	8.7374055e-08	1.07983006e-07	0.6806177	-1.9486822e-17	0.20983838
3.3504445561103114e-10	4.332489e-08	1.1061674e-07	0.6586727	-1.958868e-17	0.21188563
3.375132141732924e-10	7.868274e-09	9.929169e-08	0.6429404	-1.9643917e-17	0.21181023
3.400313379863543e-10	-1.5555479e-08	7.8748585e-08	0.6325178	-1.967204e-17	0.21049006
3.4250007807529506e-10	-2.8197393e-08	5.767873e-08	0.62705296	-1.9684422e-17	0.21115543
3.4501822401418534e-10	-3.195046e-08	3.792574e-08	0.6253915	-1.9690103e-17	0.21113439
3.475363910692813e-10	-3.015623e-08	2.3308527e-08	0.6270629	-1.9694108e-17	0.21115828
3.500052110158109e-10	-2.6195345e-08	1.3695406e-08	0.6314832	-1.9699425e-17	0.21085519
3.5252344166852846e-10	-2.2152154e-08	7.637823e-09	0.6383241	-1.9707902e-17	0.21072443
3.550416694010845e-10	-1.866246e-08	4.213971e-09	0.64701194	-1.9720194e-17	0.21132429
3.575105174642124e-10	-1.6530782e-08	6.58433e-10	0.6569201	-1.9736083e-17	0.21105047
3.6002874632695403e-10	-1.4230382e-08	-2.1069855e-09	0.668139	-1.9756034e-17	0.21096623
3.6254698519470665e-10	-1.0119292e-08	-3.9505976e-09	0.68023276	-1.977939e-17	0.21169452
3.650158285257596e-10	-5.9258967e-09	-5.530837e-09	0.69272196	-1.9805134e-17	0.21170785
3.675340290795713e-10	-4.3785793e-09	-5.267464e-09	0.70590174	-1.9833768e-17	0.21140185
3.700028609349679e-10	-3.670764e-09	-5.267464e-09	0.71907544	-1.9863637e-17	0.211214
3.725210832883662e-10	-2.3045155e-09	-4.609031e-09	0.73260206	-1.9895368e-17	0.21208479
3.7503927014134323e-10	-9.876495e-11	-3.753068e-09	0.74605936	-1.992776e-17	0.21291144
3.77508081085031e-10	1.1851794e-09	-2.5020452e-09	0.75903016	-1.9959512e-17	0.21382484
3.8002625034510034e-10	1.3497876e-09	-1.218101e-09	0.7718649	-1.9991174e-17	0.21486948
3.825444333337883e-10	1.5143958e-09	-3.4567732e-10	0.78411645	-2.0021318e-17	0.21612856
3.85013226470043e-10	2.3045155e-09	1.975299e-10	0.79537165	-2.0048616e-17	0.21751584
3.8753137231938854e-10	2.5678886e-09	2.0329118e-09	0.80588925	-2.007344e-17	0.21890709
3.9000012695449666e-10	3.0781742e-09	3.3724115e-09	0.81509566	-2.0094308e-17	0.22001347
3.9251824488153796e-10	3.9835193e-09	4.452653e-09	0.8232501	-2.0111864e-17	0.22286595
3.9503636406207056e-10	5.0040905e-09	6.0740444e-09	0.8301288	-2.0125789e-17	0.2243588
3.975050888234939e-10	5.069934e-09	8.032882e-09	0.83569336	-2.0136283e-17	0.22558628
4.0002318303503773e-10	3.9505976e-09	9.876494e-09	0.84029794	-2.0144234e-17	0.22657783
4.025412551367232e-10	1.9423774e-09	9.5802e-09	0.8439923	-2.0149865e-17	0.22789751
4.050099541187119e-10	1.6460824e-09	8.032882e-09	0.8469036	-2.0153544e-17	0.22801118
4.075280292292969e-10	2.2057505e-09	7.967039e-09	0.8493088	-2.0155778e-17	0.2284077
4.1004609173276115e-10	1.9752988e-09	8.032882e-09	0.8512787	-2.0156812e-17	0.22947112
4.125147775928868e-10	1.9752988e-09	7.242763e-09	0.85289	-2.0156944e-17	0.23007174
4.1503284462102733e-10	1.9094557e-09	7.4402924e-09	0.8542862	-2.0156423e-17	0.23045382
4.1750151971539233e-10	6.9135464e-10	7.7695095e-09	0.8554698	-2.0155445e-17	0.23064135
4.200195860835927e-10	4.9382474e-11	6.8806245e-09	0.8565313	-2.0154125e-17	0.23069455
4.225376482757817e-10	-2.3045155e-10	5.79421e-09	0.8574778	-2.015257e-17	0.23064527
4.250063374302684e-10	3.950598e-10	4.9053255e-09	0.8583166	-2.0150896e-17	0.23106988
4.275243993987933e-10	1.4320917e-09	5.0040905e-09	0.8590991	-2.0149084e-17	0.23156515
4.3004247488316256e-10	1.7448474e-09	4.7407176e-09	0.85982066	-2.0147208e-17	0.23197047
4.3251117567019026e-10	1.218101e-09	5.432072e-09	0.86047864	-2.0145335e-17	0.23229381
4.3502923700466027e-10	4.938247e-10	5.432072e-09	0.86110705	-2.0143398e-17	0.23256163
4.3754729474843106e-10	9.876495e-11	4.8065605e-09	0.86169857	-2.0141453e-17	0.23281288
4.4001600158109025e-10	5.2674637e-10	3.8189114e-09	0.86224717	-2.0139548e-17	0.23303367
4.4253406264050973e-10	1.0864144e-09	3.753068e-09	0.8627791	-2.0137604e-17	0.23321609
4.4500276388384387e-10	1.218101e-09	3.917676e-09	0.86327624	-2.0135705e-17	0.23335944
4.475208289529511e-10	1.1522577e-09	4.115206e-09	0.8637618	-2.013378e-17	0.2334736
4.500388989940309e-10	1.0534927e-09	3.358008e-09	0.8642277	-2.0131856e-17	0.23355705
4.5250759308118573e-10	8.5596286e-10	3.1275567e-09	0.8646676	-2.0129976e-17	0.2336137
4.5502566577606075e-10	7.571979e-10	2.534967e-09	0.86510074	-2.0128072e-17	0.23364794
4.575437448426962e-10	8.230412e-10	2.897105e-09	0.86552	-2.012617e-17	0.23365954
4.600124434136824e-10	1.0864144e-09	3.094635e-09	0.8659189	-2.0124308e-17	0.23365258
4.625305032355254e-10	1.5143958e-09	3.1604783e-09	0.8663144	-2.0122414e-17	0.23363714
4.6504857147554784e-10	1.2510226e-09	2.897105e-09	0.86670005	-2.0120517e-17	0.23361655
4.67517262710188e-10	1.1193361e-09	3.2263217e-09	0.86706936	-2.0118655e-17	0.23358074
4.700353209462527e-10	1.218101e-09	3.9505976e-09	0.8674382	-2.0116751e-17	0.23352976
4.725040017919051e-10	7.571979e-10	3.555538e-09	0.8677929	-2.0114879e-17	0.23346458
4.750220797680462e-10	6.9135464e-10	3.6213814e-09	0.8681485	-2.0112961e-17	0.2333829
4.775401442890856e-10	9.876494e-10	3.7201462e-09	0.86849874	-2.0111032e-17	0.23328778
4.80008830974611e-10	1.1522577e-09	3.2263217e-09	0.8688376	-2.0109126e-17	0.23318152
4.825269013151958e-10	1.8106907e-09	4.0822843e-09	0.8691793	-2.0107163e-17	0.23306128
4.850449792088071e-10	1.316866e-09	4.872404e-09	0.8695179	-2.010518e-17	0.23292577
4.875136707308234e-10	8.230412e-10	5.0040905e-09	0.86984724	-2.0103214e-17	0.2327806
4.900317443717332e-10	3.292165e-10	4.312736e-09	0.87018126	-2.0101185e-17	0.2326219
4.925004248433589e-10	4.938247e-10	4.0822843e-09	0.87050736	-2.009916e-17	0.23245093
4.950185006547579e-10	3.2921648e-11	4.016441e-09	0.8708393	-2.0097066e-17	0.23226379
4.975365719215589e-10	5.925897e-10	3.6213814e-09	0.87117106	-2.009493e-17	0.23206379
5.000052647241106e-10	5.925897e-10	3.8847547e-09	0.87149704	-2.0092803e-17	0.23185274
5.025233254813666e-10	8.5596286e-10	3.094635e-09	0.8718304	-2.0090583e-17	0.23162435
5.050413859626103e-10	1.1851794e-09	3.6213814e-09	0.87216574	-2.0088306e-17	0.23137963
5.075100860223227e-10	1.218101e-09	4.1481276e-09	0.87249655	-2.0086021e-17	0.23112375
5.100281536350813e-10	1.1851794e-09	4.2798143e-09	0.87283707	-2.0083631e-17	0.23084699
5.125461968113967e-10	5.925897e-10	3.4238514e-09	0.87318116	-2.0081171e-17	0.23055138
5.150148892008526e-10	1.1193361e-09	3.753068e-09	0.8735228	-2.0078686e-17	0.23024392
5.175329660243918e-10	1.1193361e-09	4.2798143e-09	0.8738764	-2.0076066e-17	0.22991043
5.20001662556349e-10	1.218101e-09	3.6872247e-09	0.87422854	-2.0073407e-17	0.22956178
5.225197186445872e-10	1.3827093e-09	3.4896948e-09	0.87459445	-2.0070601e-17	0.22918376
5.250377952877475e-10	1.4814742e-09	3.9505976e-09	0.87496805	-2.0067681e-17	0.22877963
5.275064777502462e-10	1.2510226e-09	4.7407176e-09	0.87534237	-2.0064698e-17	0.22835688
5.300245550559293e-10	5.925897e-10	4.7407176e-09	0.8757337	-2.0061527e-17	0.22789778
5.325426196857822e-10	-3.292165e-10	4.5431876e-09	0.8761356	-2.0058207e-17	0.22740418
5.350113104380421e-10	-1.3168659e-10	4.0822843e-09	0.87654096	-2.005479e-17	0.22688673
5.375293758279724e-10	-3.950598e-10	4.3456576e-09	0.87696743	-2.0051126e-17	0.22632217
5.400474450844171e-10	6.5843296e-11	4.4773443e-09	0.8774084	-2.004726e-17	0.22571255
5.425161342373872e-10	-4.609031e-10	5.135777e-09	0.8778562	-2.0043255e-17	0.225457
5.450341979658197e-10	-6.255113e-10	5.333307e-09	0.87833077	-2.0038915e-17	0.22528201
5.475029030916208e-10	-1.3827093e-09	5.7283667e-09	0.87881523	-2.003439e-17	0.22507274
5.500209662399204e-10	-1.7119257e-09	5.79421e-09	0.8793311	-2.0029467e-17	0.22481513
5.525390269255534e-10	-1.6460824e-09	6.3868e-09	0.8798713	-2.0024185e-17	0.22450906
5.550077187163798e-10	-2.0411421e-09	5.79421e-09	0.8804275	-2.0018618e-17	0.22415242
5.575257884295153e-10	-2.3045155e-09	5.8600533e-09	0.8810247	-2.0012485e-17	0.22372244
5.600438540512491e-10	-2.5020452e-09	5.464994e-09	0.8816559	-2.0005835e-17	0.22321843
5.625125590204537e-10	-3.0617133e-09	6.1234267e-09	0.8823117	-1.9998732e-17	0.22263716
5.650306184083877e-10	-3.6213814e-09	6.847703e-09	0.883023	-1.9990803e-17	0.22194207
5.675486975191463e-10	-5.0040905e-09	6.847703e-09	0.88378274	-1.9982075e-17	0.22112608
5.70017396066134e-10	-5.79421e-09	6.847703e-09	0.8845805	-1.9972613e-17	0.22023185
5.725354644704387e-10	-7.242763e-09	7.1769195e-09	0.88545585	-1.996187e-17	0.22013362
5.750041681790654e-10	-7.506136e-09	6.3868e-09	0.88638276	-1.9950076e-17	0.219937
5.775222413452003e-10	-8.098725e-09	5.6625233e-09	0.8874087	-1.9936515e-17	0.21958263
5.800403215290006e-10	-8.559629e-09	5.464994e-09	0.888528	-1.9921077e-17	0.21902671
5.825090146290495e-10	-9.942338e-09	6.0575833e-09	0.8897298	-1.9903736e-17	0.21823445
5.850271022031758e-10	-1.0864144e-08	5.464994e-09	0.8910795	-1.9883273e-17	0.21710116
5.875451829596556e-10	-1.297113e-08	5.3991505e-09	0.8925745	-1.985934e-17	0.21643881
5.900139062028173e-10	-1.5078115e-08	4.4773443e-09	0.8942047	-1.9831625e-17	0.21640024
5.925320061942899e-10	-1.698757e-08	2.633732e-09	0.8960628	-1.9797825e-17	0.21590416
5.950007170901679e-10	-2.0115127e-08	1.6460824e-10	0.8981065	-1.9757699e-17	0.21476072
5.975188144073288e-10	-2.3901118e-08	-1.777769e-09	0.90045017	-1.970741e-17	0.21414624
6.000369351768952e-10	-2.7324969e-08	-5.267464e-09	0.9030859	-1.9644532e-17	0.21418744
6.025056679611475e-10	-3.1078038e-08	-1.0403241e-08	0.9059675	-1.9566405e-17	0.21294811
6.050237841523078e-10	-3.578583e-08	-1.7514317e-08	0.9091828	-1.946373e-17	0.21315868
6.075419148791974e-10	-4.1020375e-08	-2.8049245e-08	0.91254693	-1.9329093e-17	0.21252295
6.100106873543381e-10	-4.4806363e-08	-4.1612964e-08	0.9156486	-1.91545e-17	0.21213348
6.125288448677839e-10	-4.753886e-08	-6.0839206e-08	0.9178114	-1.8918253e-17	0.21205193
6.15047022672232e-10	-4.454299e-08	-8.5727976e-08	0.9173141	-1.8610014e-17	0.2118312
6.175158177025917e-10	-3.4831103e-08	-1.12987095e-07	0.9114951	-1.8242694e-17	0.21413977
6.200340226735819e-10	-1.2641913e-08	-1.4090466e-07	0.8969008	-1.7858962e-17	0.22685069
6.225028517305619e-10	1.9720067e-08	-1.6908558e-07	0.8739181	-1.7627426e-17	0.25510305
6.250210782531814e-10	6.847703e-08	-2.1175204e-07	0.8453633	-1.7770854e-17	0.23413838
6.275393351387732e-10	1.4788405e-07	-2.1484668e-07	0.81288886	-1.8229615e-17	0.20302464
6.300083562405198e-10	2.1636107e-07	-1.4334086e-07	0.77789307	-1.869487e-17	0.19612072
6.32527032351627e-10	2.3660789e-07	-3.5259085e-08	0.74184865	-1.9061188e-17	0.2000236
6.350456592207039e-10	2.1221295e-07	5.59668e-08	0.7086926	-1.9317923e-17	0.20645326
6.375143391985233e-10	1.63028e-07	1.12328664e-07	0.6811759	-1.9483877e-17	0.209652
6.400323987822858e-10	1.0488837e-07	1.3432033e-07	0.6590958	-1.9586983e-17	0.21186693
6.425011324577357e-10	5.211497e-08	1.3300345e-07	0.6432356	-1.9643025e-17	0.2118003
6.450191975128574e-10	1.0139868e-08	1.149624e-07	0.6326931	-1.9671624e-17	0.21044785
6.47537286197448e-10	-1.6822963e-08	9.165387e-08	0.6270625	-1.9684404e-17	0.21115571
6.500060180088562e-10	-2.9086276e-08	6.768691e-08	0.6253904	-1.9690012e-17	0.21113466
6.52524152835082e-10	-3.334963e-08	4.806561e-08	0.6269926	-1.9694012e-17	0.21115942
6.550423168829419e-10	-3.237844e-08	3.3448394e-08	0.6314674	-1.9699406e-17	0.2108586
6.575111225487545e-10	-2.9802322e-08	2.3835273e-08	0.6381491	-1.9707674e-17	0.21068881
6.600293204580362e-10	-2.7370236e-08	1.580239e-08	0.64680046	-1.9719878e-17	0.2113382
6.62547504805618e-10	-2.454309e-08	8.823002e-09	0.6568903	-1.9736035e-17	0.21104705
6.650163329419208e-10	-2.156368e-08	4.4773443e-09	0.66787714	-1.9755546e-17	0.2110146
6.675345313892371e-10	-1.896287e-08	7.901196e-10	0.6799536	-1.9778831e-17	0.21170047
6.700033489692117e-10	-1.496289e-08	-2.7654186e-09	0.69243056	-1.9804514e-17	0.2116724
6.725215337647737e-10	-1.1028752e-08	-4.872404e-09	0.7056025	-1.9833103e-17	0.21132855
6.750396981775905e-10	-8.329177e-09	-5.135777e-09	0.71903694	-1.9863546e-17	0.21122481
6.775084843159458e-10	-5.79421e-09	-4.4773443e-09	0.7322981	-1.9894643e-17	0.21214311
6.800266630312824e-10	-3.654303e-09	-4.3456576e-09	0.74575865	-1.9927027e-17	0.21294951
6.825448007274959e-10	-1.777769e-09	-3.2921648e-09	0.75899225	-1.9959418e-17	0.21382794
6.850135756800668e-10	-1.7119257e-09	-1.8436124e-09	0.7715817	-1.9990472e-17	0.2148628
6.875317272787878e-10	-1.7119257e-09	-2.9629485e-10	0.7838483	-2.0020663e-17	0.21609716
6.900004580419438e-10	-8.6007806e-10	5.7612887e-10	0.7951225	-2.0048022e-17	0.2174501
6.925185770664087e-10	1.3168659e-10	1.7654234e-09	0.805664	-2.007292e-17	0.21880935
6.950366778786688e-10	2.534967e-09	1.6296217e-09	0.8150697	-2.0094255e-17	0.22001974
6.975053898977094e-10	4.7736393e-09	3.851833e-09	0.8230801	-2.011151e-17	0.2228514
7.00023460882818e-10	6.814781e-09	5.8600533e-09	0.8299871	-2.0125511e-17	0.22429316
7.025415185874241e-10	7.242763e-09	8.263334e-09	0.8356779	-2.0136253e-17	0.22558762
7.050101950997389e-10	7.111076e-09	9.613121e-09	0.8402044	-2.0144078e-17	0.22653165
7.075282423376592e-10	5.7283667e-09	1.078184e-08	0.84391737	-2.014976e-17	0.22788326
7.10046271035647e-10	4.1481276e-09	1.0518467e-08	0.84689546	-2.0153534e-17	0.22801225
7.125149083310032e-10	3.5390773e-09	1.0469084e-08	0.8492595	-2.015574e-17	0.22837743
7.150329259866875e-10	3.0781742e-09	9.810651e-09	0.851238	-2.01568e-17	0.22945277
7.175015630044214e-10	1.9094557e-09	9.514356e-09	0.8528557	-2.015695e-17	0.23006207
7.200195589051097e-10	1.3827093e-09	9.119296e-09	0.85425675	-2.0156441e-17	0.23044834
7.22537572498163e-10	4.938247e-10	9.415592e-09	0.85546625	-2.0155452e-17	0.23064214
7.250062277157882e-10	-1.6460824e-10	8.230412e-09	0.85650855	-2.0154158e-17	0.23069428
7.275242421142035e-10	-5.2674637e-10	8.164569e-09	0.8574573	-2.0152608e-17	0.23064838
7.300422493890021e-10	-1.0864144e-09	7.143998e-09	0.8583139	-2.0150899e-17	0.23106779
7.325108902637079e-10	-1.316866e-09	6.7818595e-09	0.85908186	-2.0149129e-17	0.2315558
7.35028901909085e-10	-9.218062e-10	6.18927e-09	0.85980475	-2.0147253e-17	0.23196217
7.375469196972856e-10	-3.292165e-10	5.695445e-09	0.86047643	-2.0145339e-17	0.23229381
7.40015562003718e-10	1.975299e-10	5.99174e-09	0.8610931	-2.0143444e-17	0.23255648
7.425335778553337e-10	-4.609031e-10	6.1234267e-09	0.86168534	-2.01415e-17	0.23280747
7.450022369692902e-10	-5.2674637e-10	5.79421e-09	0.8622347	-2.0139593e-17	0.23302954
7.475202485046201e-10	-9.876494e-10	5.8600533e-09	0.86276716	-2.013765e-17	0.23321402
7.500382616011627e-10	-1.2839443e-09	5.8600533e-09	0.8632746	-2.0135712e-17	0.23335995
7.525069032874498e-10	-1.7448474e-09	4.4773443e-09	0.8637509	-2.0133821e-17	0.23347153
7.55024931007179e-10	-1.1193361e-09	4.2798143e-09	0.8642172	-2.0131902e-17	0.23355629
7.575429483375533e-10	-2.6337318e-10	3.6872247e-09	0.86466604	-2.0129984e-17	0.23361397
7.600116042332905e-10	1.975299e-10	4.411501e-09	0.8650909	-2.0128117e-17	0.23364769
7.625296291500812e-10	4.938247e-10	4.872404e-09	0.8655105	-2.0126216e-17	0.23366006
7.65047653386386e-10	-3.6213813e-10	5.0040905e-09	0.8659174	-2.0124315e-17	0.23365258
7.675162966649043e-10	-6.255113e-10	3.7201462e-09	0.86630535	-2.0122455e-17	0.23363739
7.700343274172342e-10	-9.547279e-10	3.5884598e-09	0.8666912	-2.012056e-17	0.23361808
7.725029637418148e-10	-2.9629485e-10	3.1604783e-09	0.86706066	-2.0118698e-17	0.23358358
7.75020973308378e-10	-9.876495e-11	3.6213814e-09	0.8674297	-2.0116796e-17	0.23353077
7.775389945736483e-10	1.6460824e-10	3.1604783e-09	0.86779153	-2.0114888e-17	0.23346509
7.800076281542734e-10	3.950598e-10	3.094635e-09	0.86814034	-2.0113007e-17	0.23338598
7.825256584546176e-10	4.938247e-10	3.3909298e-09	0.86849064	-2.0111075e-17	0.23329061
7.850436799582839e-10	8.5596286e-10	3.1604783e-09	0.86883634	-2.010913e-17	0.23318256
7.875123194817651e-10	7.2427625e-10	4.016441e-09	0.86917144	-2.0107209e-17	0.23306388
7.900303263332433e-10	7.901196e-10	4.3785793e-09	0.86951005	-2.0105227e-17	0.23292963
7.925483442625201e-10	2.9629485e-10	5.135777e-09	0.8698459	-2.0103222e-17	0.23278214
7.950169836568338e-10	-1.975299e-10	4.4773443e-09	0.8701734	-2.0101232e-17	0.232625
7.975350026750104e-10	-1.3168659e-10	4.1481276e-09	0.8705061	-2.0099169e-17	0.23245223
8.000036553102612e-10	1.3168659e-10	4.0822843e-09	0.8708316	-2.0097117e-17	0.23226896
8.025216650015228e-10	7.2427625e-10	4.5431876e-09	0.8711634	-2.0094988e-17	0.23206924
8.050396881856606e-10	3.292165e-10	4.1481276e-09	0.8714957	-2.0092811e-17	0.23185456
8.075083357451424e-10	1.3827093e-09	4.5431876e-09	0.8718226	-2.0090634e-17	0.23163033
8.100263541829429e-10	1.975299e-10	5.0040905e-09	0.87215775	-2.008836e-17	0.23138587
8.125443566021784e-10	1.3168659e-10	4.609031e-09	0.87249523	-2.0086033e-17	0.23112558
8.15012995167954e-10	2.6337318e-10	4.2798143e-09	0.8728289	-2.0083689e-17	0.23085377
8.175310211522879e-10	6.5843296e-11	4.5431876e-09	0.873173	-2.0081229e-17	0.23055974
8.200490382804441e-10	-6.58433e-10	4.0822843e-09	0.87352145	-2.0078693e-17	0.23024574
8.225176813815188e-10	-6.5843296e-11	3.6872247e-09	0.873868	-2.007613e-17	0.2299188
8.250357048057359e-10	3.292165e-10	3.4896948e-09	0.87422717	-2.0073422e-17	0.22956386
8.275043321234077e-10	-2.3045155e-10	3.753068e-09	0.87458587	-2.0070667e-17	0.22919267
8.30022353057318e-10	-3.292165e-10	4.213971e-09	0.8749592	-2.006775e-17	0.22878961
8.325403713472429e-10	-9.876495e-11	4.5431876e-09	0.8753409	-2.0064715e-17	0.228359
8.350090150466923e-10	6.5843296e-11	4.3456576e-09	0.8757243	-2.0061606e-17	0.22790885
8.37527025565353e-10	1.975299e-10	4.213971e-09	0.8761258	-2.0058286e-17	0.22741765
8.400450540241446e-10	-3.950598e-10	4.3456576e-09	0.8765393	-2.0054805e-17	0.22689043
8.425136926806512e-10	-6.58433e-10	5.0040905e-09	0.8769572	-2.0051212e-17	0.22633545
8.450317161100681e-10	-1.2510226e-09	5.3991505e-09	0.8773977	-2.0047356e-17	0.22572854
8.475003585548983e-10	-1.2510226e-09	5.135777e-09	0.8778453	-2.0043352e-17	0.22546153
8.500183747235236e-10	-1.5143958e-09	5.0040905e-09	0.8783193	-2.0039023e-17	0.22528629
8.525363852489445e-10	-1.7119257e-09	5.0040905e-09	0.8788131	-2.0034412e-17	0.22507407
8.550050320086828e-10	-2.436202e-09	5.2016205e-09	0.87931854	-2.0029591e-17	0.22482234
8.575230544945262e-10	-1.777769e-09	4.8065605e-09	0.87985814	-2.0024317e-17	0.22451629
8.600410683265794e-10	-2.1728288e-09	5.267464e-09	0.8804249	-2.0018643e-17	0.22415403
8.625097132406442e-10	-1.679004e-09	4.7407176e-09	0.88101	-2.0012639e-17	0.22373426
8.650277378689475e-10	-1.9752988e-09	5.135777e-09	0.8816403	-2.0006002e-17	0.22323106
8.675457578794174e-10	-2.5020452e-09	5.069934e-09	0.8823087	-1.9998762e-17	0.2226404