# t (s)	mx ()	my ()	mz ()	E_total (J)	MaxAngle (rad)
