# t (s)	mx ()	my ()	mz ()	E_total (J)	MaxAngle (rad)
0	1.1728337e-09	5.925897e-10	0.97953606	-2.0725775e-17	0.2662727
2.5123792307512565e-12	1.1111057e-09	7.571979e-10	0.98015076	-2.0726279e-17	0.2668985
5.035863800022053e-12	8.4773244e-10	9.876494e-10	0.98098874	-2.0726866e-17	0.26966023
7.50588514273646e-12	1.7283866e-10	8.5596286e-10	0.9817823	-2.0727584e-17	0.27527457
1.0024674875886928e-11	2.2016353e-10	2.6337318e-10	0.9825516	-2.072844e-17	0.2807889
1.2543468166590706e-11	3.9094458e-10	-1.6460824e-10	0.98331726	-2.0729326e-17	0.28621748
1.5012861369662804e-11	7.2427625e-10	9.876495e-11	0.9840652	-2.073014e-17	0.29504475
1.7531609373971513e-11	9.3003655e-10	7.901196e-10	0.98478466	-2.0730837e-17	0.30234542
2.0000922037632515e-11	2.5102756e-10	1.0534927e-09	0.9853944	-2.0731351e-17	0.3086166
2.2519573997768567e-11	4.9382474e-11	4.609031e-10	0.98588157	-2.0731704e-17	0.31672886
2.5038157437526025e-11	-1.6460824e-11	-3.292165e-10	0.98622316	-2.073191e-17	0.32251787
2.750730451585073e-11	1.5555479e-09	-2.9629485e-10	0.9864298	-2.0732012e-17	0.3261135
3.0025784651104474e-11	1.6213912e-09	1.0534927e-09	0.9865336	-2.0732053e-17	0.3279778
3.2544217206410103e-11	7.078154e-10	9.218062e-10	0.9865542	-2.073207e-17	0.32837746
3.5013227256240054e-11	2.7983402e-10	4.609031e-10	0.9865132	-2.073208e-17	0.3277011
3.7531603345168046e-11	5.802441e-10	5.2674637e-10	0.9864252	-2.0732098e-17	0.3261998
4.0000542898588104e-11	8.5184765e-10	1.0534927e-09	0.98630893	-2.0732126e-17	0.32421228
4.251884845035035e-11	-3.1687086e-10	6.58433e-10	0.9861745	-2.0732154e-17	0.3219246
4.503709693584178e-11	1.1604882e-09	2.3045155e-10	0.9860381	-2.0732184e-17	0.3196012
4.750596120024684e-11	2.0822943e-09	8.5596286e-10	0.98591274	-2.0732207e-17	0.3174608
5.0024161204495536e-11	1.5061654e-09	1.316866e-09	0.9858014	-2.0732227e-17	0.31554252
5.254233050549264e-11	-8.230412e-11	1.9094557e-09	0.98571104	-2.073224e-17	0.3139697
5.5011123045527764e-11	-5.020551e-10	5.2674637e-10	0.98564416	-2.0732248e-17	0.3127959
5.7529265730533065e-11	-9.629583e-10	-8.5596286e-10	0.9855976	-2.0732251e-17	0.31197497
6.004737558145581e-11	9.3003655e-10	-1.4814742e-09	0.98557097	-2.0732251e-17	0.31150252
6.251611219718762e-11	2.419741e-09	-3.950598e-10	0.9855613	-2.0732256e-17	0.31133154
6.503419952976199e-11	1.9670685e-09	1.0534927e-09	0.98556507	-2.0732255e-17	0.3113975
6.75029000201136e-11	1.218101e-09	1.2510226e-09	0.98557884	-2.0732256e-17	0.31163785
7.002096585848209e-11	1.3991701e-10	1.1193361e-09	0.98559964	-2.0732258e-17	0.31199962
7.253901309814364e-11	8.230412e-11	0	0.9856241	-2.0732256e-17	0.31242535
7.500769029064505e-11	8.4773244e-10	0	0.9856493	-2.0732258e-17	0.31286022
7.7525723916306e-11	1.0946448e-09	2.6337318e-10	0.9856738	-2.0732258e-17	0.3132862
8.004373255080445e-11	1.078184e-09	5.925897e-10	0.9856956	-2.0732258e-17	0.31366718
8.251239068664664e-11	8.4773244e-10	5.2674637e-10	0.9857139	-2.073226e-17	0.3139809
8.503039173358614e-11	1.4238613e-09	5.925897e-10	0.9857283	-2.073226e-17	0.3142323
8.754839047482828e-11	1.0699536e-09	9.218062e-10	0.9857388	-2.073226e-17	0.31441253
9.001702776928836e-11	5.1028554e-10	1.0534927e-09	0.98574525	-2.073226e-17	0.3145249
9.253502106814722e-11	8.641933e-11	4.609031e-10	0.9857484	-2.0732261e-17	0.31458038
9.500364483127603e-11	2.716036e-10	2.3045155e-10	0.9857489	-2.073226e-17	0.31458732
9.752163090868985e-11	4.115206e-11	-1.3168659e-10	0.98574716	-2.073226e-17	0.31455764
1.0003961803406465e-10	1.078184e-09	-3.950598e-10	0.9857439	-2.0732261e-17	0.31450194
1.0250823431424265e-10	1.2674835e-09	1.3168659e-10	0.98573965	-2.0732261e-17	0.31443048
1.0502621374311884e-10	1.2139858e-09	5.925897e-10	0.98573506	-2.0732261e-17	0.31435066
1.0754421056415438e-10	7.571979e-10	7.2427625e-10	0.98573047	-2.0732261e-17	0.31427142
1.1001283040495311e-10	5.514376e-10	6.58433e-10	0.9857264	-2.0732261e-17	0.3141995
1.1253081138657749e-10	5.5966803e-10	7.571979e-10	0.9857227	-2.073226e-17	0.31413567
1.150487946582501e-10	7.6954354e-10	5.2674637e-10	0.98571986	-2.073226e-17	0.31408358
1.1751740084208263e-10	6.9135464e-10	5.2674637e-10	0.98571754	-2.073226e-17	0.31404537
1.200353869718898e-10	3.7448375e-10	1.3168659e-10	0.9857161	-2.073226e-17	0.31401932
1.2250401009888142e-10	7.078154e-10	1.3168659e-10	0.98571527	-2.0732263e-17	0.31400448
1.2502199014460022e-10	1.0205711e-09	1.3168659e-10	0.98571485	-2.073226e-17	0.31399885
1.275399757097623e-10	9.0534535e-10	1.6460824e-10	0.98571503	-2.0732261e-17	0.3140016
1.3000859450750304e-10	6.748938e-10	5.925897e-10	0.98571557	-2.0732261e-17	0.3140095
1.325265729207787e-10	5.5966803e-10	3.950598e-10	0.9857163	-2.073226e-17	0.31402203
1.350445558966042e-10	7.8188916e-10	3.292165e-10	0.98571706	-2.0732261e-17	0.31403574
1.3751317808727566e-10	6.831242e-10	5.925897e-10	0.98571795	-2.073226e-17	0.3140504
1.4003116775684735e-10	7.8188916e-10	6.58433e-10	0.98571867	-2.0732261e-17	0.31406468
1.4254915093834275e-10	6.9958506e-10	5.2674637e-10	0.98571944	-2.0732261e-17	0.31407723
1.4501775063075925e-10	8.888845e-10	2.6337318e-10	0.98572004	-2.0732261e-17	0.31408724
1.4753573653969788e-10	6.9958506e-10	4.609031e-10	0.98572046	-2.0732261e-17	0.31409514
1.5000436384078137e-10	8.806541e-10	6.58433e-10	0.98572075	-2.0732261e-17	0.31410113
1.5252234594939465e-10	6.090505e-10	5.925897e-10	0.985721	-2.0732261e-17	0.3141046
1.5504033632229911e-10	3.8682937e-10	4.609031e-10	0.9857212	-2.0732263e-17	0.3141069
1.5750894280344234e-10	7.571979e-10	5.2674637e-10	0.9857212	-2.0732263e-17	0.31410652
1.6002692451595486e-10	8.5184765e-10	3.950598e-10	0.985721	-2.0732263e-17	0.31410554
1.6254491299911083e-10	1.0740688e-09	3.6213813e-10	0.98572093	-2.0732263e-17	0.31410366
1.6501352297985986e-10	1.0041102e-09	9.218062e-10	0.98572075	-2.0732261e-17	0.31410134
1.6753150907267668e-10	4.115206e-10	8.5596286e-10	0.9857207	-2.073226e-17	0.31409883
1.7000013309993086e-10	5.7612887e-10	1.3168659e-10	0.98572046	-2.0732261e-17	0.3140957
1.7251812410947468e-10	8.9711494e-10	3.6213813e-10	0.9857204	-2.0732261e-17	0.3140934
1.7503608708327276e-10	9.38267e-10	4.609031e-10	0.9857203	-2.0732261e-17	0.31409168
1.7750472077228986e-10	9.958798e-10	5.925897e-10	0.9857202	-2.0732258e-17	0.31408975
1.8002269155552447e-10	9.38267e-10	7.901196e-10	0.9857201	-2.073226e-17	0.31408858
1.8254065861083566e-10	5.1028554e-10	6.58433e-10	0.98572004	-2.0732261e-17	0.3140878
1.8500926736778687e-10	5.020551e-10	4.609031e-10	0.98572004	-2.0732261e-17	0.31408724
1.8752725047254561e-10	4.2386622e-10	1.6460824e-10	0.98572	-2.0732261e-17	0.31408685
1.9004524562760638e-10	5.349768e-10	2.6337318e-10	0.98572	-2.0732261e-17	0.31408742
1.9251384516989233e-10	4.8559434e-10	2.6337318e-10	0.98572	-2.0732261e-17	0.31408763
1.950318233311693e-10	6.4197214e-10	2.3045155e-10	0.9857201	-2.073226e-17	0.3140882
1.975004366997301e-10	3.2098607e-10	1.975299e-10	0.9857201	-2.073226e-17	0.31408837
2.00018413229162e-10	7.7365875e-10	-2.6337318e-10	0.9857201	-2.073226e-17	0.3140888
2.025363814442103e-10	1.1522577e-09	6.5843296e-11	0.9857201	-2.0732258e-17	0.31408918
2.0500498573284438e-10	1.2057554e-09	3.292165e-10	0.9857201	-2.0732258e-17	0.31408936
2.0752296868988122e-10	1.0493776e-09	6.5843296e-11	0.9857202	-2.0732258e-17	0.31409013
2.100409439573048e-10	1.2921747e-09	2.6337318e-10	0.9857202	-2.073226e-17	0.3140907
2.1250954345247464e-10	1.4897046e-09	2.9629485e-10	0.9857202	-2.073226e-17	0.3140907
