# t (s)	mx ()	my ()	mz ()	E_total (J)	MaxAngle (rad)
0	1.1357969e-09	4.2798143e-10	0.97953594	-2.0725771e-17	0.26627246
2.50819907420183e-12	2.5267366e-09	4.0493626e-09	0.96475494	-2.064475e-17	0.23713087
5.038381792867959e-12	-1.1522577e-09	1.1325047e-08	0.9483442	-2.0441082e-17	0.22812217
7.514690152727387e-12	-1.5621323e-08	1.738263e-08	0.9337463	-2.0146745e-17	0.22644831
1.0037933526159226e-11	-3.9719968e-08	1.738263e-08	0.92174584	-1.9810923e-17	0.22445631
1.2509994753805203e-11	-7.120953e-08	1.1456733e-08	0.9123758	-1.9496379e-17	0.22256264
1.503069363220869e-11	-1.0893773e-07	-9.218062e-10	0.90462255	-1.9217214e-17	0.22159493
1.7501352896630008e-11	-1.4841079e-07	-1.7250944e-08	0.8983911	-1.8996641e-17	0.22219455
2.0021020779202082e-11	-1.8910195e-07	-3.318502e-08	0.89321744	-1.8830398e-17	0.22590955
2.254044122145156e-11	-2.2966142e-07	-4.1612964e-08	0.8891393	-1.8722924e-17	0.2300848
2.50102509880641e-11	-2.6844313e-07	-3.9505977e-08	0.8861288	-1.8669824e-17	0.23332104
2.7529318071857433e-11	-3.0557874e-07	-2.6864065e-08	0.88395387	-1.8660862e-17	0.23744047
3.0048216422256574e-11	-3.4021232e-07	-3.9505976e-09	0.8825414	-1.8688004e-17	0.24070387
3.25174549333562e-11	-3.7056608e-07	2.475708e-08	0.8817305	-1.8740695e-17	0.24216348
3.5035900385005375e-11	-3.9611328e-07	5.9258966e-08	0.8812998	-1.8813144e-17	0.2424499
3.750487464462253e-11	-4.1678808e-07	9.455098e-08	0.8810902	-1.8896377e-17	0.24196132
4.002318727596913e-11	-4.3206373e-07	1.3190059e-07	0.8809438	-1.8988972e-17	0.24103118
4.254146191020782e-11	-4.443764e-07	1.6809794e-07	0.88075113	-1.908579e-17	0.24003386
4.501035638020217e-11	-4.548455e-07	2.0121712e-07	0.880435	-1.9182211e-17	0.23938514
4.752860540700744e-11	-4.6327344e-07	2.3058323e-07	0.87991893	-1.9280033e-17	0.23940977
5.0046832471367435e-11	-4.7183306e-07	2.55472e-07	0.8791585	-1.9375722e-17	0.24027969
5.251565350379777e-11	-4.80261e-07	2.734472e-07	0.878142	-1.9466286e-17	0.24295187
5.503383511525382e-11	-4.8700997e-07	2.825336e-07	0.8768101	-1.9554426e-17	0.2459307
5.7502637547908216e-11	-4.9184945e-07	2.8246774e-07	0.87521154	-1.9635885e-17	0.24863467
6.002080728622311e-11	-4.9158604e-07	2.7259125e-07	0.87329376	-1.9713114e-17	0.2510737
6.253896895807622e-11	-4.840799e-07	2.5059958e-07	0.87111264	-1.9783613e-17	0.2530999
6.500771750626867e-11	-4.6919934e-07	2.1945571e-07	0.86875683	-1.9845517e-17	0.25450075
6.752583874656774e-11	-4.4582495e-07	1.8212256e-07	0.86618274	-1.9900854e-17	0.25515902
7.004394329901829e-11	-4.1507616e-07	1.4041083e-07	0.8634934	-1.9948202e-17	0.25490314
7.251267221213425e-11	-3.7800638e-07	9.9160005e-08	0.8608044	-1.9987125e-17	0.25371045
7.503075013987901e-11	-3.359325e-07	5.9390654e-08	0.8580662	-2.001975e-17	0.25178716
7.754883647336833e-11	-2.8936483e-07	2.4296178e-08	0.85538566	-2.0046022e-17	0.24924892
8.001755204772998e-11	-2.4329097e-07	-2.1069855e-09	0.8528573	-2.006648e-17	0.24639103
8.253562358914111e-11	-1.9751343e-07	-2.2320878e-08	0.85041475	-2.0082832e-17	0.24410774
8.500433580127828e-11	-1.5683874e-07	-3.3711768e-08	0.84817874	-2.009524e-17	0.24225245
8.752239350201085e-11	-1.1993356e-07	-4.013149e-08	0.8460764	-2.0104937e-17	0.24021205
9.004047214187306e-11	-8.931643e-08	-4.069116e-08	0.8441634	-2.0112273e-17	0.2383692
9.250917599813742e-11	-6.47898e-08	-3.7662367e-08	0.84247375	-2.0117676e-17	0.23772031
9.502724059722187e-11	-4.5234344e-08	-3.3053336e-08	0.8409371	-2.0121782e-17	0.23690824
9.754531444578558e-11	-3.0468986e-08	-2.7489577e-08	0.8395817	-2.0124801e-17	0.23604119
1.0001401586488778e-10	-1.9720067e-08	-2.1102776e-08	0.83841896	-2.0126962e-17	0.23521677
1.025320747405164e-10	-1.1555499e-08	-1.5835314e-08	0.8373899	-2.012855e-17	0.234399
1.050007767486324e-10	-6.7818595e-09	-1.1193361e-08	0.83652186	-2.0129659e-17	0.23364563
1.0751882781804551e-10	-3.6213814e-09	-7.4073707e-09	0.83576596	-2.0130448e-17	0.23294358
1.1003692016107726e-10	-1.2674835e-09	-3.9505976e-09	0.8351265	-2.0130985e-17	0.23232074
1.1250562799049191e-10	1.6460824e-11	-1.7613082e-09	0.8345993	-2.0131338e-17	0.23228243
1.1502369949311481e-10	2.6337318e-10	-2.6337318e-10	0.83415	-2.0131566e-17	0.232234
1.1754178547803412e-10	7.7365875e-10	1.5308567e-09	0.83377826	-2.0131702e-17	0.2321848
1.2001049287177349e-10	3.6213813e-10	1.5637783e-09	0.83347774	-2.0131778e-17	0.23213558
1.225285596045571e-10	5.925897e-10	1.6296217e-09	0.8332269	-2.013181e-17	0.23209074
1.2504665065033657e-10	9.876494e-10	2.5020452e-09	0.8330231	-2.0131814e-17	0.23205031
1.2751535713480874e-10	1.2016401e-09	1.9752988e-09	0.8328615	-2.0131803e-17	0.23201637
1.3003343205689018e-10	1.3250964e-09	1.835382e-09	0.83272874	-2.0131784e-17	0.23198915
1.3250213587411286e-10	2.5020452e-09	2.5020452e-09	0.8326249	-2.0131753e-17	0.23196658
1.3502022421188535e-10	2.2386721e-09	2.897105e-09	0.8325405	-2.0131731e-17	0.23194559
1.3753831578137728e-10	2.2386721e-09	3.1275567e-09	0.83247393	-2.0131703e-17	0.23193185
1.4000703084385923e-10	1.3991701e-09	3.1110958e-09	0.8324226	-2.0131684e-17	0.23191914
1.425251076304349e-10	1.5637783e-09	2.7489577e-09	0.83238167	-2.0131657e-17	0.2319098
1.4504319044989916e-10	1.3333268e-09	2.2386721e-09	0.83234984	-2.0131639e-17	0.23190254
1.4751189120824065e-10	1.5143958e-09	2.2386721e-09	0.83232576	-2.0131622e-17	0.23189606
1.5002998990966622e-10	1.9752988e-09	2.1316768e-09	0.83230674	-2.0131607e-17	0.23189346
1.525480671701277e-10	1.218101e-09	2.3703588e-09	0.8322923	-2.0131596e-17	0.23188826
1.550167807411565e-10	1.5802392e-09	1.5143958e-09	0.8322815	-2.0131586e-17	0.23188594
1.5753485158000378e-10	1.9259165e-09	1.1604882e-09	0.8322731	-2.0131576e-17	0.23188594
1.6000357440852925e-10	2.1069855e-09	1.2674835e-09	0.832267	-2.013157e-17	0.23188412
1.6252165059139677e-10	2.9629483e-09	1.4320917e-09	0.83226234	-2.0131566e-17	0.23188283
1.6503974043879467e-10	3.1604783e-09	9.38267e-10	0.8322589	-2.0131561e-17	0.23188257
1.675084505848927e-10	3.3250864e-09	1.9752988e-09	0.8322563	-2.0131558e-17	0.23188128
1.7002654117396786e-10	2.4691236e-09	2.5678886e-09	0.8322544	-2.0131553e-17	0.23188178
1.7254461807330337e-10	1.958838e-09	2.5514277e-09	0.83225316	-2.0131553e-17	0.23188075
1.7501331861746914e-10	2.1399071e-09	2.1069855e-09	0.8322521	-2.013155e-17	0.23187996
1.7753141385304023e-10	2.3703588e-09	1.8436124e-09	0.83225155	-2.013155e-17	0.23188153
1.8000012442124322e-10	2.6666536e-09	3.0123308e-09	0.8322511	-2.013155e-17	0.23188075
1.8251819228889975e-10	2.2057505e-09	2.7818794e-09	0.83225065	-2.0131548e-17	0.23188025
1.8503629469761182e-10	1.0699536e-09	3.555538e-09	0.83225054	-2.0131548e-17	0.23188075
1.875050048183078e-10	1.5143958e-09	2.7654186e-09	0.83225036	-2.0131546e-17	0.23188025
1.9002308244479095e-10	1.5802392e-09	2.3703588e-09	0.83225024	-2.013155e-17	0.23188101
1.9254116845333718e-10	1.4814742e-09	1.9917596e-09	0.8322502	-2.0131545e-17	0.23188025
1.9500988656032088e-10	1.7119257e-09	2.419741e-09	0.8322501	-2.0131545e-17	0.23187971
1.9752798909781701e-10	2.1069855e-09	2.633732e-09	0.8322502	-2.0131548e-17	0.23188153
2.0004606051436928e-10	1.8106907e-09	2.057603e-09	0.8322501	-2.0131548e-17	0.23187996
2.0251477545592932e-10	1.679004e-09	1.2016401e-09	0.8322501	-2.0131545e-17	0.23188025
2.0503285425267508e-10	1.9259165e-09	1.6296217e-09	0.8322502	-2.0131548e-17	0.23188153
2.0750156240383174e-10	1.777769e-09	1.6296217e-09	0.8322502	-2.0131548e-17	0.2318805
2.1001963735807204e-10	2.0082205e-09	1.6625432e-09	0.8322502	-2.0131548e-17	0.23188101
2.1253773457401903e-10	1.9094557e-09	1.2757139e-09	0.8322502	-2.0131548e-17	0.23188101
2.150064457353324e-10	2.2057505e-09	1.4156308e-09	0.83225024	-2.0131548e-17	0.23187996
2.1752453099565578e-10	2.5678886e-09	1.3004051e-09	0.83225024	-2.0131548e-17	0.23188178
2.200426103601304e-10	2.617271e-09	1.3827093e-09	0.83225024	-2.0131548e-17	0.23187996
2.2251132272167984e-10	2.1728288e-09	1.9259165e-09	0.83225024	-2.0131548e-17	0.23188025
2.2502940534698328e-10	2.2057505e-09	1.497935e-09	0.83225024	-2.0131548e-17	0.23188128
2.2754749425749178e-10	2.6995752e-09	1.8600731e-09	0.83225024	-2.0131548e-17	0.23187996
2.300161992212202e-10	2.3703588e-09	2.1069855e-09	0.83225024	-2.0131548e-17	0.23188075
2.325342901586126e-10	2.4691236e-09	1.7119257e-09	0.83225024	-2.0131548e-17	0.23188025
2.3500299717575934e-10	2.2880546e-09	1.1934098e-09	0.83225024	-2.0131548e-17	0.23188025
2.3752108013029746e-10	2.3374371e-09	2.1234463e-09	0.83225024	-2.0131548e-17	0.23188153
2.40039167497333e-10	2.493815e-09	1.9752988e-09	0.83225024	-2.0131545e-17	0.2318805
2.4250788659800444e-10	3.234552e-09	2.2386721e-09	0.83225024	-2.0131546e-17	0.23188025
2.450259663344355e-10	2.9464875e-09	2.2386721e-09	0.83225024	-2.0131548e-17	0.23188178
2.475440360221637e-10	2.732497e-09	3.0370222e-09	0.83225024	-2.0131546e-17	0.23188025
2.5001276027358646e-10	2.6831144e-09	2.897105e-09	0.83225024	-2.0131548e-17	0.23188101
2.525308488861127e-10	2.1069855e-09	2.1234463e-09	0.83225024	-2.0131548e-17	0.23188101
2.5504892633932244e-10	2.4691236e-09	1.9752988e-09	0.83225024	-2.0131548e-17	0.2318805
2.575176339083827e-10	2.6090408e-09	2.5020452e-09	0.83225024	-2.0131546e-17	0.23188101
2.600357203645092e-10	2.4691236e-09	2.7242664e-09	0.83225024	-2.0131548e-17	0.23188025
2.6250444071485967e-10	2.2057505e-09	2.7901097e-09	0.83225024	-2.0131548e-17	0.23188025
2.650225031073959e-10	2.3703588e-09	2.4691236e-09	0.83225024	-2.0131548e-17	0.23188205
2.6754058429658045e-10	2.2715938e-09	2.0740638e-09	0.83225024	-2.0131546e-17	0.23188075
2.7000927898040764e-10	2.5020452e-09	1.958838e-09	0.83225024	-2.0131548e-17	0.2318805
2.7252736585299815e-10	2.3374371e-09	1.876534e-09	0.83225024	-2.0131548e-17	0.23188101
2.7504545439692403e-10	2.1399071e-09	1.3004051e-09	0.83225024	-2.0131545e-17	0.2318805
2.7751415799112574e-10	2.1728288e-09	1.5390871e-09	0.83225024	-2.0131548e-17	0.23188128
2.800322267632256e-10	1.8929949e-09	1.7119257e-09	0.83225024	-2.0131543e-17	0.23188025
2.8250094609705504e-10	2.1399071e-09	1.1028752e-09	0.83225024	-2.0131546e-17	0.23187996
2.8501902065745705e-10	2.7489577e-09	1.9752988e-09	0.83225024	-2.0131548e-17	0.23188153
2.875371126581026e-10	2.9300267e-09	1.6296217e-09	0.83225024	-2.0131548e-17	0.23187996
2.900058049458043e-10	3.851833e-09	2.1810591e-09	0.83225024	-2.0131545e-17	0.23188025
2.92523873259175e-10	3.5390773e-09	2.7489577e-09	0.83225024	-2.0131548e-17	0.23188128
2.9504196590113797e-10	3.0287917e-09	2.6501927e-09	0.83225024	-2.0131548e-17	0.2318805
2.975106753662897e-10	2.6501927e-09	2.477354e-09	0.83225024	-2.0131545e-17	0.23188128
3.0002876115774686e-10	2.3868196e-09	1.6131608e-09	0.83225024	-2.0131545e-17	0.2318805
3.0254683680452193e-10	2.6008102e-09	1.6954649e-09	0.83225024	-2.0131546e-17	0.23188101
3.050155461418776e-10	3.0287917e-09	1.8600731e-09	0.83225024	-2.0131546e-17	0.23188178
3.075336095777045e-10	2.7983402e-09	2.633732e-09	0.83225024	-2.0131548e-17	0.23188075
3.1000232355221817e-10	2.3209763e-09	2.5514277e-09	0.83225024	-2.0131548e-17	0.23187996
3.1252038394527284e-10	2.3374371e-09	2.633732e-09	0.83225024	-2.0131546e-17	0.23188128
3.1503845530769033e-10	2.057603e-09	2.6008102e-09	0.83225024	-2.0131548e-17	0.23187996
3.175071601295033e-10	1.9094557e-09	1.4650133e-09	0.83225024	-2.0131548e-17	0.2318805
3.2002524890274855e-10	2.2222113e-09	1.0473199e-09	0.83225024	-2.0131548e-17	0.23188128
3.2254332572337904e-10	1.5884696e-09	1.1522577e-09	0.83225024	-2.0131548e-17	0.23188101
3.250120309196025e-10	1.8929949e-09	6.666634e-10	0.83225024	-2.0131548e-17	0.23188153
3.275301104092251e-10	3.1440175e-09	8.888845e-10	0.83225024	-2.0131548e-17	0.2318805
3.300481846137008e-10	3.7695287e-09	9.876494e-10	0.83225024	-2.0131548e-17	0.23188153
3.325168841071871e-10	3.5884598e-09	1.4485525e-09	0.83225024	-2.0131548e-17	0.23188128
3.3503496140995086e-10	3.2263217e-09	1.7695386e-09	0.83225024	-2.0131545e-17	0.23188025
3.3750366700687754e-10	3.2921648e-09	2.057603e-09	0.83225024	-2.0131545e-17	0.23188075
3.400217357043077e-10	3.6872247e-09	1.7859995e-09	0.83225024	-2.0131548e-17	0.23188101
3.425398166913974e-10	2.3703588e-09	2.436202e-09	0.83225024	-2.0131545e-17	0.2318805
3.4500851504309185e-10	3.1110958e-09	2.658423e-09	0.83225024	-2.0131545e-17	0.23188153
3.4752658560877895e-10	2.5514277e-09	2.2222113e-09	0.83225024	-2.0131548e-17	0.2318805
3.500446589585967e-10	2.6666536e-09	1.8271515e-09	0.83225024	-2.0131546e-17	0.23188128
3.52513355736306e-10	3.1110958e-09	2.1069855e-09	0.83225024	-2.0131548e-17	0.23188178
3.550314460741643e-10	3.0617133e-09	2.0987552e-09	0.83225024	-2.0131548e-17	0.23188025
3.575001240281412e-10	2.4691236e-09	1.679004e-09	0.83225024	-2.0131548e-17	0.23188025
3.6001819979139974e-10	2.6501927e-09	1.4485525e-09	0.83225024	-2.0131546e-17	0.23188101
3.625362839858613e-10	2.732497e-09	1.4485525e-09	0.83225024	-2.0131543e-17	0.23188075
3.650049871374472e-10	2.2715938e-09	2.3374371e-09	0.83225024	-2.0131548e-17	0.23188128
3.6752305072673807e-10	3.0617133e-09	1.9423774e-09	0.83225024	-2.0131545e-17	0.23188101
3.7004111946892494e-10	2.6666536e-09	2.8641833e-09	0.83225024	-2.0131548e-17	0.23188153
3.7250982889287206e-10	2.7654186e-09	2.3045155e-09	0.83225024	-2.0131548e-17	0.23188128
3.750279046268699e-10	2.716036e-09	2.4691236e-09	0.83225024	-2.0131548e-17	0.2318805
3.7754597242689916e-10	1.9259165e-09	2.3703588e-09	0.83225024	-2.0131548e-17	0.23188178
3.800146623701712e-10	2.1069855e-09	2.5020452e-09	0.83225024	-2.0131548e-17	0.23188128
3.8253273293507347e-10	2.1234463e-09	1.6625432e-09	0.83225024	-2.0131546e-17	0.2318805
3.85001425789753e-10	2.0411421e-09	1.316866e-09	0.83225024	-2.0131545e-17	0.23188153
3.875195021916329e-10	2.419741e-09	1.316866e-09	0.83225024	-2.0131548e-17	0.23188075
3.9003756498153954e-10	2.7407272e-09	1.8847643e-09	0.83225024	-2.0131548e-17	0.23188101
3.9250628245802255e-10	3.0452525e-09	1.9259165e-09	0.83225024	-2.0131548e-17	0.23188101
3.950243552746226e-10	2.1645985e-09	2.2880546e-09	0.83225024	-2.0131548e-17	0.23188025
3.975424205365889e-10	1.9423774e-09	1.6625432e-09	0.83225024	-2.0131548e-17	0.23188205
4.000111021907303e-10	2.1234463e-09	1.835382e-09	0.83225024	-2.0131546e-17	0.23188153
4.025291710643698e-10	2.3868196e-09	1.835382e-09	0.83225024	-2.0131548e-17	0.23188075
4.0504723364102864e-10	2.6995752e-09	1.8436124e-09	0.83225024	-2.0131546e-17	0.23188101
4.07515924143861e-10	2.732497e-09	2.3292066e-09	0.83225024	-2.0131548e-17	0.23188075
4.1003398981094494e-10	2.436202e-09	2.1069855e-09	0.83225024	-2.0131548e-17	0.23188101
4.12502693267684e-10	2.2386721e-09	2.3045155e-09	0.83225024	-2.0131548e-17	0.23188153
4.150207641645828e-10	2.156368e-09	2.1728288e-09	0.83225036	-2.0131548e-17	0.23188075
4.175388307277261e-10	1.5884696e-09	2.4691236e-09	0.83225024	-2.0131543e-17	0.23188128
4.200075208720131e-10	2.2386721e-09	1.9012252e-09	0.83225024	-2.0131546e-17	0.23188153
4.225255995917271e-10	2.156368e-09	2.2469024e-09	0.83225024	-2.0131548e-17	0.23188025
4.250436603767348e-10	2.3209763e-09	1.9752988e-09	0.83225024	-2.0131548e-17	0.23188205
4.275123629211688e-10	2.5020452e-09	2.2057505e-09	0.83225024	-2.0131548e-17	0.23188101
4.300304332402786e-10	2.255133e-09	2.5020452e-09	0.83225024	-2.0131546e-17	0.23188101
4.325484912091704e-10	1.8106907e-09	1.958838e-09	0.83225024	-2.0131548e-17	0.23188101
4.3501717761479246e-10	2.4032802e-09	1.917686e-09	0.83225024	-2.0131548e-17	0.23188075
4.375352523961104e-10	2.0246813e-09	1.8600731e-09	0.83225024	-2.0131545e-17	0.23188128
4.400039507832989e-10	2.1399071e-09	2.1069855e-09	0.83225024	-2.0131545e-17	0.23188153
4.4252201781142547e-10	1.4320917e-09	2.1069855e-09	0.83225024	-2.0131548e-17	0.2318805
4.450400811409337e-10	1.7942299e-09	2.1399071e-09	0.83225024	-2.0131545e-17	0.23188178
4.4750876800198063e-10	1.8106907e-09	1.497935e-09	0.83225024	-2.0131548e-17	0.23188101
4.5002682941808256e-10	1.7283865e-09	2.0822943e-09	0.83225024	-2.0131548e-17	0.23188101
4.525448925390251e-10	1.9094557e-09	1.3333268e-09	0.83225024	-2.0131548e-17	0.23188075
4.550135757763706e-10	2.6666536e-09	1.876534e-09	0.83225024	-2.0131545e-17	0.23188075
4.575316430665176e-10	2.633732e-09	1.6543128e-09	0.83225024	-2.0131548e-17	0.23188153
4.600003429788889e-10	2.732497e-09	1.5143958e-09	0.83225024	-2.0131548e-17	0.23188153
4.6251838140521586e-10	2.6995752e-09	1.0946448e-09	0.83225024	-2.0131548e-17	0.23188025
4.6503643419069726e-10	3.5884598e-09	1.3991701e-09	0.83225024	-2.0131548e-17	0.23188178
4.675051239678147e-10	3.6872247e-09	2.4526627e-09	0.83225024	-2.0131548e-17	0.23188153
4.700231832058037e-10	3.0123308e-09	2.1069855e-09	0.83225024	-2.0131546e-17	0.23188075
4.725412503021938e-10	1.9094557e-09	2.6748839e-09	0.83225024	-2.0131548e-17	0.23188128
4.750099511616401e-10	1.6625432e-09	1.9752988e-09	0.83225024	-2.0131548e-17	0.23188101
4.775280109990587e-10	2.0740638e-09	1.8847643e-09	0.83225024	-2.0131545e-17	0.23188101
4.800460637041141e-10	2.0411421e-09	1.1522577e-09	0.83225024	-2.0131546e-17	0.23188075
4.825147501514329e-10	3.0617133e-09	9.464974e-10	0.83225024	-2.0131548e-17	0.2318805
4.850328139169144e-10	3.571999e-09	1.1851794e-09	0.83225024	-2.0131545e-17	0.23188128
4.875015019225642e-10	2.9711789e-09	1.2345618e-09	0.83225024	-2.0131548e-17	0.23188178
4.900195531131706e-10	3.2098608e-09	1.6954649e-09	0.83225024	-2.0131548e-17	0.23188025
4.925376139055468e-10	3.2921648e-09	2.3045155e-09	0.83225024	-2.0131546e-17	0.23188153
4.950063001740087e-10	2.8312617e-09	2.4855844e-09	0.83225024	-2.0131546e-17	0.23188101
4.975243703118469e-10	2.9135658e-09	2.0246813e-09	0.83225024	-2.0131546e-17	0.23188128
5.000424095611921e-10	2.436202e-09	2.19752e-09	0.83225036	-2.0131543e-17	0.23188101
5.025111052651203e-10	2.6008102e-09	1.958838e-09	0.83225024	-2.0131546e-17	0.23188075
5.050291700262682e-10	2.5678886e-09	2.016451e-09	0.83225024	-2.0131546e-17	0.23188153
5.075472077798681e-10	2.436202e-09	1.5720087e-09	0.83225024	-2.0131548e-17	0.2318805
5.100158810505261e-10	2.1316768e-09	1.4156308e-09	0.83225024	-2.0131545e-17	0.23188075
5.125339456006506e-10	2.1399071e-09	1.2201586e-09	0.83225024	-2.0131548e-17	0.23188153
5.150026397770297e-10	2.814801e-09	1.8436124e-09	0.83225024	-2.0131548e-17	0.23188101
5.175207070277592e-10	2.7818794e-09	1.4650133e-09	0.83225024	-2.0131545e-17	0.23188101
5.200387578918617e-10	3.2180911e-09	1.8600731e-09	0.83225024	-2.0131548e-17	0.23188128
5.225074240031687e-10	3.4896948e-09	2.1645985e-09	0.83225024	-2.0131546e-17	0.23188128
5.250254750168585e-10	3.4403123e-09	2.3703588e-09	0.83225024	-2.0131548e-17	0.23188128
5.275435317341015e-10	2.897105e-09	2.2222113e-09	0.83225024	-2.0131548e-17	0.23188128
5.300122168100155e-10	3.0123308e-09	2.3374371e-09	0.83225024	-2.0131548e-17	0.23188075
5.325302799199871e-10	2.633732e-09	2.2715938e-09	0.83225024	-2.0131545e-17	0.23188153
5.350483149226665e-10	2.8312617e-09	2.4032802e-09	0.83225024	-2.0131548e-17	0.2318805
5.375169860151805e-10	3.1440175e-09	2.897105e-09	0.83225024	-2.0131548e-17	0.23188128
5.400350480018206e-10	2.4032802e-09	2.8394922e-09	0.83225024	-2.0131548e-17	0.23188075
5.425037293360638e-10	1.958838e-09	2.814801e-09	0.83225024	-2.0131548e-17	0.23188101
5.450217720501382e-10	1.7613082e-09	2.6748839e-09	0.83225024	-2.0131548e-17	0.23188153
5.475398108151144e-10	1.7448474e-09	2.4608933e-09	0.83225024	-2.0131548e-17	0.23188075
5.500084878292673e-10	1.7448474e-09	3.0452525e-09	0.83225024	-2.0131545e-17	0.23188075
5.525265512028782e-10	2.3868196e-09	2.8806442e-09	0.83225024	-2.0131548e-17	0.23188205
5.550446081604988e-10	2.436202e-09	2.7818794e-09	0.83225024	-2.0131546e-17	0.23188075
5.57513264304762e-10	2.436202e-09	2.4032802e-09	0.83225024	-2.0131548e-17	0.23188075
5.600313182482146e-10	2.353898e-09	3.1934e-09	0.83225024	-2.0131548e-17	0.23188153
5.625000005176866e-10	1.8106907e-09	2.477354e-09	0.83225024	-2.0131548e-17	0.23188101
5.650180423813299e-10	2.057603e-09	2.1069855e-09	0.83225024	-2.0131548e-17	0.23188128
5.675360870315271e-10	2.4855844e-09	1.5390871e-09	0.83225024	-2.0131545e-17	0.23188101
5.700047654129783e-10	3.1275567e-09	1.6460824e-09	0.83225024	-2.0131546e-17	0.23188128
5.725228055428481e-10	3.4238514e-09	1.8436124e-09	0.83225024	-2.0131548e-17	0.23188128
5.750408605688633e-10	3.456773e-09	2.353898e-09	0.83225024	-2.0131548e-17	0.23188101
5.775095239060654e-10	2.9629483e-09	2.6255014e-09	0.83225024	-2.0131548e-17	0.23188101
5.800275725602122e-10	1.9094557e-09	1.7942299e-09	0.83225024	-2.0131545e-17	0.23188205
5.825456101100578e-10	2.5514277e-09	1.835382e-09	0.83225024	-2.0131548e-17	0.23188075
5.850142806722688e-10	2.3209763e-09	2.1399071e-09	0.83225024	-2.0131546e-17	0.23188153
5.875323285537891e-10	2.6501927e-09	2.3703588e-09	0.83225024	-2.0131546e-17	0.23188075
5.900009867819119e-10	2.6501927e-09	2.279824e-09	0.83225024	-2.0131545e-17	0.23188101
5.925190431076358e-10	2.2222113e-09	2.0740638e-09	0.83225024	-2.0131548e-17	0.23188101
5.950370776271078e-10	2.59258e-09	2.3374371e-09	0.83225024	-2.0131548e-17	0.23188153
5.975057421236515e-10	2.0246813e-09	2.2386721e-09	0.83225024	-2.0131545e-17	0.23188075
6.000237921235543e-10	1.9094557e-09	2.0411421e-09	0.83225024	-2.0131548e-17	0.23188153
6.025418373175937e-10	1.5637783e-09	1.835382e-09	0.83225024	-2.0131545e-17	0.23188075
6.05010493525861e-10	1.8106907e-09	1.6131608e-09	0.83225024	-2.0131548e-17	0.23188153
6.075285164104108e-10	2.3868196e-09	1.6460824e-09	0.83225024	-2.0131548e-17	0.23188128
6.100465704064446e-10	1.9917596e-09	1.7201561e-09	0.83225024	-2.0131546e-17	0.23188153
6.125152341496417e-10	2.1234463e-09	1.1851794e-09	0.83225024	-2.0131548e-17	0.23188178
6.15033293210995e-10	2.9300267e-09	1.2427922e-09	0.83225024	-2.0131548e-17	0.23188128
6.175019465852438e-10	2.732497e-09	2.0740638e-09	0.83225024	-2.0131548e-17	0.23188101
6.200199871810785e-10	3.0287917e-09	1.7859995e-09	0.83225024	-2.0131548e-17	0.23188178
6.225380191965951e-10	2.4526627e-09	1.9752988e-09	0.83225024	-2.0131546e-17	0.23188128
6.250066830131293e-10	2.534967e-09	2.1810591e-09	0.83225024	-2.0131548e-17	0.23188153
6.275247225845138e-10	2.5514277e-09	2.2633633e-09	0.83225024	-2.0131546e-17	0.23188128
6.30042748862043e-10	2.419741e-09	1.8436124e-09	0.83225024	-2.0131546e-17	0.23188128
6.325114208110013e-10	2.1728288e-09	1.316866e-09	0.83225024	-2.0131548e-17	0.23188153
6.350294575697738e-10	2.5514277e-09	2.2222113e-09	0.83225024	-2.0131545e-17	0.23188101
6.37547494878393e-10	2.633732e-09	1.4650133e-09	0.83225024	-2.0131548e-17	0.23188128
6.400161655906524e-10	2.5843494e-09	1.1111057e-09	0.83225024	-2.0131548e-17	0.23188153
6.425341840920662e-10	3.4896948e-09	2.156368e-09	0.83225024	-2.0131548e-17	0.23188153
6.450028444945885e-10	3.6213814e-09	1.9259165e-09	0.83225024	-2.0131546e-17	0.23188075
6.475208841040725e-10	2.9135658e-09	2.1810591e-09	0.83225024	-2.0131546e-17	0.23188205
6.500389178784725e-10	3.0617133e-09	1.9752988e-09	0.83225024	-2.0131548e-17	0.23188101
6.525075672582195e-10	3.2592433e-09	1.8600731e-09	0.83225024	-2.0131545e-17	0.23188153
6.55025604439941e-10	2.8641833e-09	1.876534e-09	0.83225024	-2.0131548e-17	0.23188075
6.575436302519711e-10	2.732497e-09	1.6296217e-09	0.83225024	-2.0131548e-17	0.23188153
6.600122816472462e-10	2.4526627e-09	1.958838e-09	0.83225024	-2.0131545e-17	0.23188178
6.625303136365544e-10	1.6625432e-09	1.7119257e-09	0.83225024	-2.0131548e-17	0.23188178
6.650483447133858e-10	1.7448474e-09	1.5802392e-09	0.83225024	-2.0131548e-17	0.23188153
6.675170030722033e-10	3.1275567e-09	1.9752988e-09	0.83225024	-2.0131543e-17	0.23188153
6.700350310669742e-10	2.9135658e-09	2.3621283e-09	0.83225024	-2.0131548e-17	0.23188128
6.725036918724948e-10	2.2386721e-09	2.8641833e-09	0.83225024	-2.0131548e-17	0.23188128
6.750217170692299e-10	2.2386721e-09	3.0287917e-09	0.83225024	-2.0131545e-17	0.23188101
6.775397371917492e-10	1.5143958e-09	2.7654186e-09	0.83225024	-2.0131546e-17	0.23188128
6.800083788072644e-10	1.7448474e-09	2.8312617e-09	0.83225024	-2.0131548e-17	0.23188178
6.825264083924104e-10	1.777769e-09	1.9506077e-09	0.83225024	-2.0131546e-17	0.23188153
6.850444448109393e-10	2.2386721e-09	1.6049304e-09	0.83225024	-2.0131548e-17	0.23188128
6.875130939165261e-10	2.2386721e-09	1.8436124e-09	0.83225024	-2.0131548e-17	0.23188178
6.900311103290596e-10	2.6666536e-09	1.7119257e-09	0.83225024	-2.0131548e-17	0.23188178
6.92549141801487e-10	2.6666536e-09	2.0246813e-09	0.83225024	-2.0131548e-17	0.23188153
6.95017795326795e-10	2.7654186e-09	1.9999902e-09	0.83225024	-2.0131548e-17	0.23188101
6.975358205405352e-10	3.1110958e-09	1.8518427e-09	0.83225024	-2.0131545e-17	0.23188153
7.000044632730254e-10	2.5020452e-09	2.1069855e-09	0.83225024	-2.0131548e-17	0.23188178
7.025224812037138e-10	2.0411421e-09	2.633732e-09	0.83225024	-2.0131548e-17	0.23188153
7.050405064691561e-10	2.1728288e-09	1.7201561e-09	0.83225024	-2.0131543e-17	0.23188178
7.075091592926433e-10	2.7654186e-09	1.5390871e-09	0.83225024	-2.0131548e-17	0.23188153
7.100271880261288e-10	3.753068e-09	1.2839443e-09	0.83225024	-2.0131548e-17	0.23188128
7.125452023515548e-10	4.016441e-09	1.7448474e-09	0.83225024	-2.0131548e-17	0.23188153
7.150138444279203e-10	3.3909298e-09	2.732497e-09	0.83225024	-2.0131546e-17	0.23188205
7.175318690005483e-10	2.8806442e-09	2.4691236e-09	0.83225024	-2.0131548e-17	0.23188128
7.200005224815406e-10	2.6666536e-09	2.5020452e-09	0.83225024	-2.0131548e-17	0.23188153
7.225185493712263e-10	3.1604783e-09	2.534967e-09	0.83225024	-2.0131546e-17	0.23188178
7.250365642541179e-10	2.7983402e-09	2.3868196e-09	0.83225024	-2.0131548e-17	0.23188153
7.275051905096323e-10	3.0452525e-09	2.6831144e-09	0.83225024	-2.0131548e-17	0.23188153
7.300232060150793e-10	3.3250864e-09	3.1687086e-09	0.83225024	-2.0131548e-17	0.23188178
7.325412310008673e-10	3.0617133e-09	2.9217964e-09	0.83225024	-2.0131548e-17	0.23188153
7.35009867766093e-10	2.814801e-09	2.5020452e-09	0.83225024	-2.0131548e-17	0.23188178
7.375278971628069e-10	2.518506e-09	2.2386721e-09	0.83225024	-2.0131543e-17	0.23188178
7.400459208126103e-10	2.716036e-09	1.876534e-09	0.83225024	-2.0131548e-17	0.23188178
7.42514546900307e-10	2.6831144e-09	1.9012252e-09	0.83225024	-2.0131548e-17	0.23188101
7.450325645521034e-10	2.2715938e-09	1.958838e-09	0.83225024	-2.0131545e-17	0.23188128
7.475011904884227e-10	2.5843494e-09	1.958838e-09	0.83225024	-2.0131545e-17	0.23188101
7.500192180029144e-10	2.2880546e-09	2.2386721e-09	0.83225024	-2.0131548e-17	0.23188153
7.525372339836051e-10	1.8436124e-09	1.6296217e-09	0.83225024	-2.0131548e-17	0.23188153
7.550058711059137e-10	2.534967e-09	1.4320917e-09	0.83225024	-2.0131546e-17	0.23188153
7.575238771390856e-10	2.8477225e-09	1.3333268e-09	0.83225024	-2.0131548e-17	0.23188178
7.600418890008415e-10	2.9300267e-09	1.7613082e-09	0.83225024	-2.0131546e-17	0.23188178
7.625105382499634e-10	3.094635e-09	2.3497826e-09	0.83225024	-2.0131548e-17	0.23188153
7.650285477792287e-10	3.1934e-09	1.8436124e-09	0.83225024	-2.0131548e-17	0.23188153
7.675465481815864e-10	3.1275567e-09	1.777769e-09	0.83225024	-2.0131546e-17	0.23188101
7.700151975719632e-10	3.1275567e-09	1.7613082e-09	0.83225024	-2.0131548e-17	0.23188178
7.725332170607214e-10	3.374469e-09	1.7119257e-09	0.83225024	-2.0131548e-17	0.23188205
7.750018469116714e-10	3.1604783e-09	2.057603e-09	0.83225024	-2.0131548e-17	0.23188178
7.775198648465577e-10	2.9300267e-09	3.4238514e-09	0.83225024	-2.0131545e-17	0.23188153
7.800378619866219e-10	2.0411421e-09	2.6995752e-09	0.83225024	-2.0131548e-17	0.23188153
7.825064966851002e-10	9.711887e-10	2.353898e-09	0.83225024	-2.0131548e-17	0.23188153
7.850245051031193e-10	1.1522577e-09	1.4320917e-09	0.83225024	-2.0131546e-17	0.23188153
7.875425114838786e-10	1.4814742e-09	1.2098705e-09	0.83225024	-2.0131548e-17	0.23188178
7.900111385142114e-10	2.0740638e-09	1.0864144e-09	0.83225024	-2.0131548e-17	0.23188153
7.925291529240121e-10	2.5843494e-09	1.4485525e-09	0.83225024	-2.0131548e-17	0.23188205
7.950471592697453e-10	2.2386721e-09	1.7530778e-09	0.83225024	-2.0131548e-17	0.23188178
7.975157997827992e-10	2.732497e-09	2.0411421e-09	0.83225024	-2.0131548e-17	0.23188178
8.000338044683865e-10	2.0082205e-09	1.7119257e-09	0.83225024	-2.0131545e-17	0.23188153
8.02502441374879e-10	1.876534e-09	1.9752988e-09	0.83225024	-2.0131546e-17	0.23188178
8.050204400843546e-10	2.4032802e-09	1.4485525e-09	0.83225024	-2.0131548e-17	0.23188178
8.075384495091188e-10	2.5514277e-09	1.2098705e-09	0.83225024	-2.0131545e-17	0.23188178
8.100070658490175e-10	2.5678886e-09	1.5720087e-09	0.83225024	-2.0131545e-17	0.23188128
8.125250855511966e-10	2.8806442e-09	1.4897046e-09	0.83225024	-2.0131548e-17	0.23188178
8.150430880224597e-10	2.7983402e-09	1.679004e-09	0.83225024	-2.0131545e-17	0.23188128
8.175117230397817e-10	2.8312617e-09	2.057603e-09	0.83225024	-2.0131548e-17	0.23188153
8.200297133715578e-10	1.7119257e-09	1.8436124e-09	0.83225024	-2.0131548e-17	0.23188153
8.225477199537252e-10	1.6131608e-09	1.3333268e-09	0.83225024	-2.0131548e-17	0.23188178
8.250163390948934e-10	2.1399071e-09	1.358018e-09	0.83225024	-2.0131548e-17	0.23188205
8.275343416522232e-10	2.156368e-09	1.6296217e-09	0.83225024	-2.0131548e-17	0.23188205
8.300029646812788e-10	2.3045155e-09	1.7119257e-09	0.83225024	-2.0131546e-17	0.23188101
8.325209754178617e-10	2.1234463e-09	1.8847643e-09	0.83225024	-2.0131545e-17	0.23188178
8.350389660706813e-10	2.7818794e-09	1.9094557e-09	0.83225024	-2.0131548e-17	0.23188128
8.375075982324278e-10	3.4814642e-09	1.4732437e-09	0.83225024	-2.0131548e-17	0.23188178
8.400255772394809e-10	3.094635e-09	1.8929949e-09	0.83225024	-2.0131548e-17	0.23188178
8.425435342121052e-10	2.633732e-09	2.3703588e-09	0.83225024	-2.0131548e-17	0.23188205
8.450121390315302e-10	2.7654186e-09	2.1728288e-09	0.83225024	-2.0131548e-17	0.23188153
8.475301246684723e-10	3.094635e-09	2.2715938e-09	0.83225024	-2.0131548e-17	0.23188205
8.50048109521263e-10	2.8641833e-09	2.3209763e-09	0.83225024	-2.0131546e-17	0.23188153
8.525166917193973e-10	2.19752e-09	2.6008102e-09	0.83225024	-2.0131548e-17	0.23188153
8.550346820631718e-10	2.436202e-09	1.9999902e-09	0.83225024	-2.0131546e-17	0.23188128
8.575032891446657e-10	2.1399071e-09	1.8189211e-09	0.83225024	-2.0131548e-17	0.23188205
8.600212468028096e-10	2.1069855e-09	2.419741e-09	0.83225024	-2.0131545e-17	0.23188178