# t (s)	mx ()	my ()	mz ()
0	1.4197461e-09	5.2674637e-10	0.97953594
2.021863885460929e-12	1.3539028e-09	1.1851794e-09	0.9745653
4.006205051198708e-12	9.547279e-10	1.6460824e-09	0.9701124
6.035659967672712e-12	3.950598e-10	2.0246813e-09	0.96627825
8.014849436861035e-12	-3.950598e-10	1.0534927e-09	0.9635829
1.0042596457691928e-11	-8.724237e-10	1.2325042e-09	0.9621766
1.2020218874786979e-11	-1.2510226e-09	9.917647e-10	0.96223474
1.4046765346430605e-11	-2.1069855e-09	7.078154e-10	0.96371466
1.6023516554984832e-11	-2.7654186e-09	-6.5843296e-11	0.9663887
1.8049399452325718e-11	-3.0287917e-09	-1.2016401e-09	0.97009456
2.0025654838745395e-11	-2.3703588e-09	-3.358008e-09	0.9741306
2.2001759585605435e-11	-2.6337318e-10	-5.6625233e-09	0.9775744
2.402713481978133e-11	2.9053355e-09	-6.18927e-09	0.97830474
2.600298102764043e-11	5.5966805e-09	-5.0040905e-09	0.9724176
2.8028126927671686e-11	7.637823e-09	-2.8312617e-09	0.95586413
3.000376146506197e-11	8.691315e-09	-5.2674637e-10	0.93047404
3.202865153179138e-11	8.7571586e-09	1.1687186e-09	0.9008306
3.4004051278981756e-11	7.3744495e-09	3.753068e-09	0.87531066
3.60287916063232e-11	5.629602e-09	6.3209566e-09	0.8550776
3.800411081226116e-11	4.115206e-09	7.3744495e-09	0.8399457
4.002872627989762e-11	3.8682937e-09	7.389881e-09	0.8282108
4.2003645826258514e-11	2.757188e-09	7.750991e-09	0.8199471
4.4027935609202494e-11	1.5946423e-09	7.4361775e-09	0.81431544
4.600294176887099e-11	9.2592134e-10	6.716016e-09	0.8111702
4.802737505909997e-11	7.489675e-10	5.3991505e-09	0.80989105
5.000244180755531e-11	3.950598e-10	5.135777e-09	0.8101828
5.202686614667428e-11	-9.876495e-11	4.4444226e-09	0.8117572
5.400187591091103e-11	3.950598e-10	4.4855746e-09	0.814225
5.6026246247858335e-11	9.876495e-11	3.8065657e-09	0.8174135
5.800125598362298e-11	9.876495e-11	3.6872247e-09	0.8209649
6.002563169664653e-11	6.9135464e-10	2.7654186e-09	0.82491475
6.200063350931045e-11	7.7365875e-10	2.633732e-09	0.82894874
6.402502639545086e-11	1.316866e-09	2.897105e-09	0.8331369
6.600002849987222e-11	1.9917596e-09	3.0123308e-09	0.83715636
6.802440386215181e-11	2.1728288e-09	3.6872247e-09	0.84111804
7.004876056686076e-11	2.0740638e-09	3.9835193e-09	0.8448684
7.202372977262041e-11	2.5678886e-09	3.6213814e-09	0.84830576
7.404809479023343e-11	2.5678886e-09	3.9505976e-09	0.8516027
7.602308311866344e-11	2.732497e-09	3.4238514e-09	0.8546082
7.804742458311062e-11	3.1604783e-09	3.555538e-09	0.857486
8.00223997508762e-11	3.0617133e-09	3.9505976e-09	0.860113
8.204675191915712e-11	2.4691236e-09	4.6748743e-09	0.8626417
8.402172379305855e-11	1.679004e-09	4.9053255e-09	0.86497223
8.604606614841384e-11	1.5473175e-09	4.609031e-09	0.86724716
8.802104173840539e-11	1.7283865e-09	4.2798143e-09	0.8693795
9.004538577279035e-11	1.9752988e-09	4.7407176e-09	0.87149906
9.202036269623156e-11	1.777769e-09	5.069934e-09	0.8735219
9.404471084563705e-11	1.5143958e-09	5.9258967e-09	0.875568
9.601968995375325e-11	1.3497876e-09	5.79421e-09	0.877554
9.804403690156887e-11	3.292165e-10	5.530837e-09	0.87959695
1.0001902494060198e-10	4.2798143e-10	5.530837e-09	0.88161385
1.0204337611525236e-10	9.876495e-11	6.2551133e-09	0.883724
1.0401836983716961e-10	-3.2921648e-11	6.5843295e-09	0.88584304
1.0604272008258173e-10	-7.901196e-10	7.1769195e-09	0.88809747
1.0801772104065241e-10	-1.5143958e-09	7.4402924e-09	0.89039946
1.1004210149384596e-10	-2.4032802e-09	7.703666e-09	0.8928892
1.1201709399121205e-10	-3.2592433e-09	7.7695095e-09	0.8954729
1.1404145924258137e-10	-4.2468926e-09	7.7695095e-09	0.8983127
1.1601646773216018e-10	-5.464994e-09	6.913546e-09	0.9013065
1.1804084577296081e-10	-6.9793895e-09	7.1769195e-09	0.90464616
1.2001584738013233e-10	-8.460864e-09	6.5184866e-09	0.90821475
1.2204022504958614e-10	-1.0008181e-08	5.8394773e-09	0.9122399
1.2401524374197375e-10	-1.2115167e-08	5.5966805e-09	0.9165713
1.260396524135833e-10	-1.4419682e-08	3.753068e-09	0.92145973
1.2801465837446903e-10	-1.758016e-08	1.2510226e-09	0.9266676
1.3003905498632017e-10	-2.0082206e-08	-2.5020452e-09	0.9323857
1.320140955355815e-10	-2.2452564e-08	-8.032882e-09	0.9381342
1.340385295401261e-10	-2.4032804e-08	-1.5275646e-08	0.943734
1.3601358592142104e-10	-2.4032804e-08	-2.416449e-08	0.94799954
1.3803802218624044e-10	-2.1267384e-08	-3.476526e-08	0.949358
1.400130856265992e-10	-1.4685113e-08	-4.569525e-08	0.944828
1.4203752105125288e-10	-1.0534927e-09	-5.3069698e-08	0.9305063
1.4401260099355624e-10	1.734971e-08	-5.333307e-08	0.90596247
1.4603706363983598e-10	3.4172672e-08	-4.5958622e-08	0.87545866
1.4801212337783758e-10	4.5431875e-08	-3.8485407e-08	0.847713
1.5003658718945094e-10	5.3069698e-08	-2.4855845e-08	0.8223647
1.5201184024041834e-10	5.451825e-08	-6.4382397e-09	0.8001659
1.5403660276260723e-10	4.9975064e-08	1.1851793e-08	0.78026336
1.5601171179109426e-10	4.1020375e-08	2.5316748e-08	0.7639644
1.5803590016043348e-10	2.8925783e-08	3.318502e-08	0.7506171
1.6001082153110848e-10	1.7892916e-08	3.491341e-08	0.7408265
1.6203521215744832e-10	8.065804e-09	3.2789963e-08	0.7338059
1.640102280738121e-10	-5.5966803e-10	2.8292042e-08	0.72961235
1.6603457800961953e-10	-5.333307e-09	2.278178e-08	0.72778875
1.680095453216049e-10	-7.950578e-09	1.6477285e-08	0.72805715
1.7003390305980445e-10	-7.901195e-09	1.2641913e-08	0.7300192
1.720089134051028e-10	-6.7324772e-09	9.3497485e-09	0.7332986
1.7403331123683577e-10	-6.3044956e-09	7.1769195e-09	0.7378766
1.7600833691955305e-10	-5.99174e-09	5.366229e-09	0.74336714
1.7803275205704746e-10	-6.090505e-09	4.4279616e-09	0.74984777
1.8000780450988179e-10	-5.9588183e-09	2.9629483e-09	0.7568012
1.8203222645670634e-10	-5.0040905e-09	1.5143958e-09	0.7643888
1.8400726475565073e-10	-3.0287917e-09	1.9423774e-09	0.7720935
1.860316874318347e-10	-2.2057505e-09	1.2345618e-09	0.78017324
1.8800671780792182e-10	-1.9423774e-09	9.876494e-10	0.788119
1.9003113583369218e-10	-5.925897e-10	1.4074005e-09	0.7962079
1.920061644084562e-10	3.950598e-10	1.248965e-09	0.8039271
1.9403058147479267e-10	1.316866e-09	1.6995801e-09	0.8115446
1.960056016185374e-10	1.2839443e-09	1.9012252e-09	0.81858754
1.9802999960728658e-10	2.0740638e-09	2.493815e-09	0.82532525
2.0000501163152765e-10	3.4238514e-09	2.2386721e-09	0.83137536
2.0202939793631273e-10	4.2798143e-09	3.8189114e-09	0.83701444
2.0400439700838365e-10	3.917676e-09	4.2633537e-09	0.8419706
2.0602875792686915e-10	3.654303e-09	5.1028555e-09	0.84651977
2.0800375119848597e-10	3.3250864e-09	6.18927e-09	0.8504848
2.1002810907349607e-10	2.3045155e-09	6.4526433e-09	0.85412204
2.1200309502716813e-10	1.2510226e-09	6.716016e-09	0.8573143
2.1402745586465148e-10	1.6460824e-09	6.650173e-09	0.86028236
2.1600242776089557e-10	1.4320917e-09	6.8806245e-09	0.86293644
2.180267928203172e-10	1.2345618e-09	6.18927e-09	0.8654594
2.2000176792487817e-10	1.218101e-09	5.7612883e-09	0.8677699
2.220261009346372e-10	1.4485525e-09	6.1234267e-09	0.8700209
2.2400109774111866e-10	9.0534535e-10	6.9793895e-09	0.87213296
2.2602544475905055e-10	5.925897e-10	7.242763e-09	0.8742393
2.280004124486291e-10	4.938247e-10	7.901195e-09	0.8762604
2.3002477188626087e-10	-6.9135464e-10	8.164569e-09	0.8783192
2.3204913066569825e-10	-1.3497876e-09	8.098725e-09	0.8803858
2.340241207046475e-10	-1.8436124e-09	7.7695095e-09	0.8824287
2.360484703796178e-10	-2.7654186e-09	7.242763e-09	0.88456994
2.380234514770741e-10	-3.5226164e-09	7.3744495e-09	0.886725
2.4004780547277503e-10	-4.0493626e-09	7.637823e-09	0.88902354
2.420227942385916e-10	-4.4444226e-09	7.703666e-09	0.8913768
2.4404715974441325e-10	-4.971169e-09	8.296255e-09	0.8939293
2.4602214939572673e-10	-6.1563483e-09	8.921766e-09	0.8965863
2.480465268815516e-10	-8.493785e-09	8.7242364e-09	0.8995155
2.500215244364105e-10	-1.0139868e-08	7.967039e-09	0.9026125
2.5204589340218907e-10	-1.1884715e-08	7.111076e-09	0.9060764
2.5402090396711106e-10	-1.4287996e-08	6.4526433e-09	0.90978557
2.5604529437150526e-10	-1.6427903e-08	4.8065605e-09	0.91397476
2.580203011879345e-10	-1.8633653e-08	2.6995752e-09	0.9184819
2.6004469407277054e-10	-2.136615e-08	-3.4567732e-10	0.92355627
2.6201970958558855e-10	-2.4460785e-08	-4.609031e-09	0.92892927
2.640441328477569e-10	-2.7028673e-08	-1.1325047e-08	0.93475413
2.660191678233702e-10	-2.8180931e-08	-1.91604e-08	0.9404619
2.680435772958879e-10	-2.7423733e-08	-2.976117e-08	0.945711
2.7001863374121457e-10	-2.334145e-08	-4.2008022e-08	0.94905233
2.7204307543812787e-10	-1.5242723e-08	-5.530837e-08	0.9483961
2.7401813651311276e-10	-8.230412e-10	-6.597499e-08	0.94041747
2.7604259191008113e-10	2.1004011e-08	-6.8740405e-08	0.9215126
2.7801766114034494e-10	4.510266e-08	-5.8995596e-08	0.89381117
2.800421079917965e-10	6.2024384e-08	-4.5826933e-08	0.86359817
2.820171705789234e-10	7.255932e-08	-3.0880507e-08	0.8371875
2.8404168097025905e-10	7.525889e-08	-6.9793895e-09	0.8128992
2.8601699935930187e-10	6.9036695e-08	1.774477e-08	0.7917865
2.880417395526989e-10	5.4567632e-08	3.7415454e-08	0.77315295
2.9001664699382415e-10	3.7053315e-08	4.816437e-08	0.7581805
2.9204085345591704e-10	1.9925828e-08	5.1423616e-08	0.746203
2.940158155234855e-10	6.0987353e-09	4.8501818e-08	0.73765296
2.9604019712147274e-10	-3.851833e-09	4.0164412e-08	0.7317688
2.9801520194685766e-10	-1.018925e-08	3.1473096e-08	0.7285938
3.000395374841394e-10	-1.2888825e-08	2.334145e-08	0.7276769
3.02014516039758e-10	-1.4057544e-08	1.6724197e-08	0.7286592
3.040388853944544e-10	-1.4057544e-08	1.1720107e-08	0.73121804
3.0601386223198676e-10	-1.2608991e-08	8.427942e-09	0.73499966
3.0803827104777934e-10	-1.06172315e-08	5.4979155e-09	0.74002683
3.100133060149349e-10	-9.250983e-09	4.0822843e-09	0.7458811
3.120377458117444e-10	-7.736587e-09	2.633732e-09	0.75264925
3.1401277996821255e-10	-6.4526433e-09	1.316866e-09	0.7598056
3.1603717289145397e-10	-5.432072e-09	2.9629485e-10	0.7675358
3.1801221046879985e-10	-3.555538e-09	-2.9629485e-10	0.77532727
3.200366226658091e-10	-2.4032802e-09	-4.773639e-10	0.78344756
3.2201165161990307e-10	-1.4156308e-09	1.975299e-10	0.7913856
3.2403605779091173e-10	6.5843296e-11	9.876494e-10	0.79941714
3.2601107516221873e-10	1.5020503e-09	1.3600756e-09	0.80703264
3.280354612723302e-10	1.4814742e-09	2.2386721e-09	0.8144993
3.30010484446955e-10	1.4156308e-09	3.555538e-09	0.82135946
3.3203487474216687e-10	1.6460824e-09	3.9999803e-09	0.8278839
3.3400987841238486e-10	1.8106907e-09	3.5884598e-09	0.83371186
3.3603425649012354e-10	3.0617133e-09	3.4238514e-09	0.83912164
3.380092511957541e-10	3.2921648e-09	5.069934e-09	0.8438625
3.4003362553322847e-10	3.0617133e-09	6.0575833e-09	0.8482077
3.420085972325332e-10	2.732497e-09	7.7695095e-09	0.851996
3.440329587235194e-10	1.6460824e-09	7.835352e-09	0.85547704
3.4600794338812336e-10	9.218062e-10	8.296255e-09	0.8585415
3.480322839341085e-10	2.3045155e-10	7.7695095e-09	0.86140233
3.500072542160496e-10	-2.6337318e-10	7.242763e-09	0.8639725
3.5203159948578743e-10	-6.58433e-10	7.539057e-09	0.86642766
3.540065544954551e-10	-1.7119257e-09	7.506136e-09	0.8686875
3.560309003234219e-10	-2.3703588e-09	6.650173e-09	0.8708999
3.5800587522608523e-10	-2.436202e-09	6.551408e-09	0.87298566
3.60030219176654e-10	-1.9752988e-09	5.79421e-09	0.8750751
3.620051981881704e-10	-1.3827093e-09	5.9258967e-09	0.8770887
3.640295229477031e-10	-2.1399071e-09	6.847703e-09	0.87914824
3.6600450691381897e-10	-3.1604783e-09	6.847703e-09	0.88117254
3.6802886569216264e-10	-4.312736e-09	6.913546e-09	0.8832829
3.700038410625176e-10	-5.0040905e-09	6.3868e-09	0.8853954
3.720281878530523e-10	-5.6625233e-09	5.6625233e-09	0.88763714
3.740031655266907e-10	-5.9258967e-09	4.7407176e-09	0.8899203
3.7602753409394066e-10	-6.814781e-09	5.333307e-09	0.8923844
3.7800251811462454e-10	-7.5719795e-09	5.333307e-09	0.89493674
3.800268729380387e-10	-8.888845e-09	4.5431876e-09	0.89773697
3.820018598955381e-10	-9.613121e-09	3.9505976e-09	0.9006843
3.840262240771384e-10	-1.1193361e-08	3.555538e-09	0.9039673
3.8600121216031077e-10	-1.2510227e-08	1.9094557e-09	0.9074711
3.880255939588661e-10	-1.4156309e-08	-4.691335e-10	0.91142005
3.900005912225692e-10	-1.5143959e-08	-2.8312617e-09	0.91566837
3.920249728644281e-10	-1.6526668e-08	-6.0575833e-09	0.92046666
3.9404936276793724e-10	-1.777769e-08	-9.876494e-09	0.9257236
3.9602438952023996e-10	-1.8106906e-08	-1.4485526e-08	0.9312439
3.9804879858538577e-10	-1.7547238e-08	-2.0674795e-08	0.93712825
4.000238307089962e-10	-1.5275646e-08	-2.8049245e-08	0.94269735
4.0204825492529686e-10	-9.876494e-09	-3.674056e-08	0.9473979
4.0402331412969055e-10	-1.5802392e-09	-4.556356e-08	0.9494567
4.0604774715746653e-10	1.0726285e-08	-5.2674636e-08	0.9462015
4.080228090396477e-10	2.7670646e-08	-5.4254876e-08	0.93420744
4.100472600937611e-10	4.6831044e-08	-4.4641755e-08	0.9108824
4.1202232821283914e-10	6.031246e-08	-2.7851714e-08	0.8814077
4.140467679766303e-10	6.78186e-08	-1.1555499e-08	0.85233736
4.16021830666963e-10	6.887209e-08	5.8271317e-09	0.8271134
4.180464202757401e-10	5.952234e-08	2.6209747e-08	0.8038718
4.2002178945900095e-10	4.3555342e-08	4.2008022e-08	0.78390867
4.22046379042503e-10	2.4896996e-08	5.0468888e-08	0.76659065
4.2402118869885e-10	9.292135e-09	5.0238437e-08	0.752957
4.2604543634069705e-10	-4.3785793e-09	4.5020354e-08	0.7423226
4.2802040405829694e-10	-1.2296236e-08	3.5621223e-08	0.7349536
4.3004477921510433e-10	-1.6460824e-08	2.6337318e-08	0.7301661
4.3201975859728717e-10	-1.7695386e-08	1.7250944e-08	0.7279629
4.340440934336769e-10	-1.6641893e-08	1.0139868e-08	0.72788054
4.3601905509896636e-10	-1.3695406e-08	5.9423577e-09	0.72951514
4.380434047983945e-10	-1.1670725e-08	3.555538e-09	0.732632
4.4001842102815633e-10	-9.744808e-09	1.316866e-09	0.7368899
4.4204281504986615e-10	-8.806541e-09	-4.115206e-10	0.74233645
4.440178290514099e-10	-7.209841e-09	-9.547279e-10	0.7485202
4.4604222942229866e-10	-5.2427724e-09	-2.1069855e-09	0.7555419
4.480172609712902e-10	-3.456773e-09	-3.1604783e-09	0.76287335
4.5004166138651826e-10	-1.777769e-09	-3.0287917e-09	0.77072304
4.52016692215634e-10	-3.292165e-10	-3.0287917e-09	0.77858186
4.5404109204181274e-10	1.1851794e-09	-1.9094557e-09	0.78672284
4.5601612050977045e-10	1.316866e-09	-9.218062e-10	0.7946337
4.5804051603200436e-10	1.218101e-09	5.349768e-11	0.8025877
4.6001552857516596e-10	1.876534e-09	1.1502e-09	0.8100811
4.620399188578818e-10	2.9300267e-09	1.1152208e-09	0.81738114
4.640149351986831e-10	2.732497e-09	1.9752988e-09	0.82404673
4.660392951681414e-10	1.9752988e-09	3.8189114e-09	0.83035064
4.680142863034946e-10	1.5143958e-09	3.8189114e-09	0.8359548
4.700386571029628e-10	1.5473175e-09	5.267464e-09	0.8411374
4.720136396035641e-10	1.1851794e-09	5.135777e-09	0.8456688
4.740379997970534e-10	7.571979e-10	5.135777e-09	0.8498192
4.760129790047364e-10	8.5596286e-10	4.7407176e-09	0.85344046
4.780373193428638e-10	8.230412e-10	4.6748743e-09	0.85677576
4.800122854083591e-10	5.925897e-10	5.135777e-09	0.85972226
4.820366363233688e-10	1.975299e-10	5.3991505e-09	0.8624849
4.840115897059606e-10	-1.4485525e-09	5.7283667e-09	0.86497855
4.860359319729717e-10	-2.2057505e-09	5.5966805e-09	0.86737275
4.880108891907975e-10	-2.633732e-09	5.0040905e-09	0.8695874
4.900352169868078e-10	-2.0411421e-09	3.4896948e-09	0.8717662
4.920101701013978e-10	-1.679004e-09	3.094635e-09	0.87382996
4.940345180860289e-10	-1.1851794e-09	4.016441e-09	0.87590647
4.960094795579474e-10	-1.1851794e-09	4.6748743e-09	0.87791574
4.980338090930408e-10	-1.9752988e-09	4.872404e-09	0.8799791
5.000087742416078e-10	-2.4032802e-09	4.7407176e-09	0.88201535
5.020331206133466e-10	-2.8641833e-09	4.1481276e-09	0.8841456
5.040080851176637e-10	-3.1934e-09	4.2798143e-09	0.8862858
5.060324362010579e-10	-4.0822843e-09	3.1604783e-09	0.88856465
5.080074094811372e-10	-3.9505976e-09	2.633732e-09	0.89089394
5.10031745637084e-10	-4.115206e-09	2.3703588e-09	0.8934163
5.120067313605493e-10	-4.1810493e-09	2.2057505e-09	0.89603764
5.140310855664529e-10	-5.6625233e-09	1.6460824e-09	0.89892304
5.160060581969815e-10	-6.18927e-09	1.4485525e-09	0.901969
5.180304192726716e-10	-6.716016e-09	1.0864144e-09	0.9053718
5.200054147688739e-10	-7.604901e-09	2.5308516e-10	0.90901166
5.220297931706297e-10	-8.592551e-09	-6.58433e-10	0.91312015
5.240048090569384e-10	-1.0534928e-08	-2.3045155e-09	0.91754115
5.26029178501821e-10	-1.0995831e-08	-5.1028555e-09	0.92252505
5.280041884057264e-10	-1.0929988e-08	-8.296255e-09	0.92781925
5.300285885273206e-10	-9.942338e-09	-1.1720107e-08	0.933597
5.320036110313776e-10	-8.79008e-09	-1.5045194e-08	0.9393352
5.340280280407403e-10	-6.288035e-09	-2.0279735e-08	0.94477683
5.360030708269628e-10	-1.4156308e-09	-2.4888767e-08	0.94860846
5.380275011730156e-10	5.4979155e-09	-2.8839365e-08	0.94900244
5.400025673104375e-10	1.44937555e-08	-3.1012192e-08	0.942782
5.420270022511977e-10	2.5275595e-08	-2.8312618e-08	0.92612004
5.440020709755567e-10	3.499571e-08	-1.9094557e-08	0.89980817
5.460265144486934e-10	4.0822844e-08	-7.901195e-09	0.8693065
5.480015595354798e-10	4.3851635e-08	1.1193361e-09	0.84225917
5.500260490667045e-10	4.0296097e-08	1.297113e-08	0.81745994
5.520013306879604e-10	3.2197374e-08	2.3242684e-08	0.79581034
5.540261020115304e-10	2.03785e-08	3.07982e-08	0.7765512
5.560010644577028e-10	8.847693e-09	3.3613002e-08	0.76093
5.580252316853769e-10	-1.1934098e-09	3.114388e-08	0.7482867
5.600001499249448e-10	-7.654283e-09	2.55472e-08	0.73913926
5.620245114936072e-10	-1.1308586e-08	1.8123368e-08	0.73270655
5.640488570704279e-10	-1.2362079e-08	1.2641913e-08	0.72897935
5.660238148858339e-10	-1.2016402e-08	8.164569e-09	0.72768956
5.68048132087319e-10	-9.38267e-09	4.831252e-09	0.72836924
5.700230955529624e-10	-6.748938e-09	2.7448424e-09	0.7306049
5.720474458399695e-10	-5.152238e-09	1.1851794e-09	0.73424864
5.740224519026716e-10	-4.0822843e-09	3.2098607e-10	0.7389565
5.760468364271938e-10	-3.1604783e-09	5.925897e-10	0.74479026
5.780218545561542e-10	-2.99587e-09	0	0.7512695
5.800462587396272e-10	-2.4526627e-09	-1.6460824e-09	0.75851285
5.820212672138485e-10	-8.5596286e-10	-2.5020452e-09	0.76599395
5.840456761794432e-10	5.925897e-10	-2.2057505e-09	0.7739418
5.860207058364072e-10	2.5020452e-09	-1.1193361e-09	0.7818485
5.880450924121725e-10	2.2386721e-09	-4.609031e-10	0.7899908
5.900201132155375e-10	2.2715938e-09	4.609031e-10	0.7978547
5.920444918042268e-10	3.2263217e-09	1.3806516e-09	0.8057114
5.940194974811133e-10	3.8189114e-09	2.633732e-09	0.81306547
5.960438631255658e-10	2.897105e-09	2.7654186e-09	0.82018423
5.980188582675102e-10	2.732497e-09	3.4238514e-09	0.8266458
6.000432317552801e-10	2.4691236e-09	4.3374273e-09	0.8327242
6.020182208263426e-10	1.8106907e-09	5.2016205e-09	0.83810425
6.040425663861616e-10	6.5843296e-11	5.9258967e-09	0.84306395
6.06017530859989e-10	-3.1275565e-10	4.016441e-09	0.8473931
6.080418773417815e-10	1.3497876e-09	2.633732e-09	0.85135794
6.100168379068486e-10	2.9217964e-09	2.7654186e-09	0.8548225
6.12041184897913e-10	3.456773e-09	3.8189114e-09	0.8580225
6.140161369010776e-10	2.633732e-09	4.5431876e-09	0.8608603
6.160404645859747e-10	1.777769e-09	5.1028555e-09	0.863533
6.180154067202222e-10	3.6213813e-10	4.8065605e-09	0.86595756
6.200397415161803e-10	-4.2798143e-10	4.3456576e-09	0.8682971
6.220146960146589e-10	-7.571979e-10	3.4238514e-09	0.87047213
6.240390082110238e-10	-3.292165e-10	3.456773e-09	0.87262183
6.260139558053028e-10	1.0534927e-09	3.1604783e-09	0.87466735
6.280382879644579e-10	1.5473175e-09	4.213971e-09	0.8767344
6.300132368416287e-10	7.2427625e-10	5.0040905e-09	0.87874293
6.320375862829023e-10	-5.2674637e-10	5.5966805e-09	0.8808136
6.340125278405614e-10	-1.316866e-09	5.530837e-09	0.8828644
6.360368643555133e-10	-1.5802392e-09	5.135777e-09	0.885018
6.380118210534254e-10	-2.0740638e-09	5.333307e-09	0.8871894
6.400361754885849e-10	-2.6008102e-09	5.267464e-09	0.88950944
6.420111414398699e-10	-2.5020452e-09	5.530837e-09	0.8918889
6.440354758603542e-10	-3.4238514e-09	5.695445e-09	0.8944743
6.460104463937582e-10	-4.312736e-09	5.6625233e-09	0.89717025
6.480348040166738e-10	-5.5966805e-09	5.464994e-09	0.90014696
6.500097839232689e-10	-6.913546e-09	5.267464e-09	0.90329903
6.520341342601678e-10	-7.999961e-09	4.872404e-09	0.9068291
6.540091091278118e-10	-9.3497485e-09	4.0987453e-09	0.9106128
6.560334832123777e-10	-1.1193361e-08	3.1604783e-09	0.9148885
6.580084855396011e-10	-1.3563719e-08	1.8436124e-09	0.91948694
6.600328530681262e-10	-1.5341488e-08	-7.2427625e-10	0.9246552
6.620078741031233e-10	-1.7843533e-08	-3.358008e-09	0.9301062
6.640322726752538e-10	-2.0082206e-08	-8.427942e-09	0.93596834
6.660072998344634e-10	-2.0806482e-08	-1.4255074e-08	0.94161934
6.680316952361129e-10	-2.0477266e-08	-2.2320878e-08	0.9466162
6.70006738339087e-10	-1.8106906e-08	-3.1078038e-08	0.9493524
6.720311712682901e-10	-1.30698945e-08	-4.1086217e-08	0.9474457
6.740062309227368e-10	-2.7489577e-09	-4.951416e-08	0.9374781
6.760306752412318e-10	1.4748899e-08	-5.1226085e-08	0.91626346
6.780057291550067e-10	3.2592432e-08	-4.332489e-08	0.88746566
6.800301613186342e-10	4.6090307e-08	-3.4501888e-08	0.8577723
6.82005232746412e-10	5.491331e-08	-2.1399071e-08	0.8319877
6.840297804022617e-10	5.6361863e-08	-2.1728288e-09	0.8082317
6.860051383006876e-10	4.9843376e-08	1.48888155e-08	0.7876981
6.880297782369929e-10	3.817265e-08	2.7604802e-08	0.76973206
6.900045960729634e-10	2.61295e-08	3.318502e-08	0.7554427
6.920288111949711e-10	1.5382641e-08	3.3843456e-08	0.744156
6.940037483271047e-10	6.748938e-09	3.1802312e-08	0.73621666
6.960281070718833e-10	5.1028554e-10	2.7785871e-08	0.73089725
6.980030437890783e-10	-3.7695287e-09	2.2888775e-08	0.7282251
7.000273694235161e-10	-6.551408e-09	1.777769e-08	0.7277437
7.020022952107914e-10	-7.522597e-09	1.3563719e-08	0.72906595
7.040266499310568e-10	-7.2756845e-09	1.0164559e-08	0.7319139
7.060016087494365e-10	-7.0616935e-09	7.242763e-09	0.73594195
7.080259816877317e-10	-6.2551133e-09	4.016441e-09	0.741187
7.10000993195714e-10	-5.069934e-09	2.0411421e-09	0.74721366
7.120253807600126e-10	-3.456773e-09	2.0411421e-09	0.7541154
7.140003949344062e-10	-2.732497e-09	2.1069855e-09	0.7613643
7.1602477767199e-10	-2.1399071e-09	1.1851794e-09	0.76915824
7.180491470076379e-10	-1.316866e-09	9.547279e-10	0.7771838
7.200241667492954e-10	-3.950598e-10	1.975299e-10	0.7851196
7.220485583126822e-10	1.975299e-10	4.115206e-11	0.79324317
7.240235526524216e-10	1.5143958e-09	8.312716e-10	0.8010404
7.260479212138231e-10	2.3374371e-09	1.7016377e-09	0.80878055
7.280229277500007e-10	2.6008102e-09	3.0020428e-09	0.81597924
7.300472852954897e-10	3.094635e-09	4.0822843e-09	0.82290435
7.32022261941874e-10	1.9752988e-09	4.4773443e-09	0.82915395
7.340466271621356e-10	2.2386721e-09	3.9505976e-09	0.8350038
7.360215966939771e-10	2.3374371e-09	4.839482e-09	0.8401613
7.380459216802066e-10	1.4814742e-09	4.0822843e-09	0.84490377
7.400208736052691e-10	3.358008e-09	3.753068e-09	0.84903896
7.420452122927584e-10	5.432072e-09	5.530837e-09	0.85282826
7.440201654473034e-10	5.9588183e-09	8.329177e-09	0.8561462
7.460444856139453e-10	4.032902e-09	9.77773e-09	0.85922074
7.480194187114114e-10	1.5143958e-09	8.9546885e-09	0.8619588
7.500437426776176e-10	2.9629485e-10	7.3744495e-09	0.86455005
7.520186841915059e-10	-7.2427625e-10	5.9588183e-09	0.8669123
7.540430014233874e-10	-1.3827093e-09	3.6872247e-09	0.8692029
7.560179247786023e-10	7.901196e-10	2.8312617e-09	0.87134314
7.580422451510595e-10	3.456773e-09	4.5431876e-09	0.8734683
7.600171780436295e-10	4.016441e-09	7.242763e-09	0.87549937
7.620415087451212e-10	2.5020452e-09	9.3497485e-09	0.87756056
7.640164406288073e-10	-6.9135464e-10	9.3497485e-09	0.87957144
7.660407668948109e-10	-2.5020452e-09	7.637823e-09	0.88165253
7.680157009752625e-10	-3.4238514e-09	6.18927e-09	0.88372135
7.7004003086163e-10	-3.2592433e-09	4.6748743e-09	0.8859017
7.720149801771371e-10	-2.3045155e-09	4.4773443e-09	0.88810766
7.740393053778396e-10	-2.3703588e-09	5.3991505e-09	0.8904729
7.760142672037511e-10	-2.3374371e-09	6.650173e-09	0.892907
7.780386103781003e-10	-2.9629483e-09	7.5719795e-09	0.89556074
7.80013568650429e-10	-4.6748743e-09	7.506136e-09	0.89833665
7.820379161927989e-10	-6.5843295e-09	7.1769195e-09	0.9014115
7.840128931577597e-10	-8.526707e-09	7.0781545e-09	0.9046765
7.860372371594797e-10	-1.139089e-08	6.1234267e-09	0.9083421
7.880122111240252e-10	-1.34649545e-08	5.5472977e-09	0.91227776
7.900365740017852e-10	-1.5604861e-08	3.4485428e-09	0.91672707
7.92011564165682e-10	-1.738263e-08	1.4485525e-09	0.92150605
7.940359356354024e-10	-2.0543109e-08	-1.1851794e-09	0.9268531
7.96010952228132e-10	-2.3440213e-08	-5.6625233e-09	0.9324388
7.980353365806741e-10	-2.6008102e-08	-1.1884715e-08	0.9383297
8.000103623932621e-10	-2.6798222e-08	-2.0806482e-08	0.94378054
8.020347654791287e-10	-2.5975181e-08	-3.1209723e-08	0.94810706
8.040098140632989e-10	-2.2255035e-08	-4.3193204e-08	0.9493473
8.060342326417363e-10	-1.3246848e-08	-5.5176685e-08	0.9445247
8.080092845479667e-10	3.0452525e-09	-6.294619e-08	0.9303221
8.100337382434897e-10	2.6370241e-08	-6.149764e-08	0.9049769
8.120087878103195e-10	4.6221995e-08	-5.10944e-08	0.8751838
8.140332086927733e-10	6.0575836e-08	-4.0625313e-08	0.84681857
8.160082995022363e-10	6.808197e-08	-2.2452564e-08	0.82214564
8.180329439146459e-10	6.755522e-08	1.6460824e-09	0.79944974
8.200083245962279e-10	5.833716e-08	2.2032813e-08	0.7800958
8.220327268178442e-10	4.4806363e-08	3.6674717e-08	0.76346165
8.240075103624587e-10	2.9975162e-08	4.3588262e-08	0.75051075
8.260317749095252e-10	1.5621323e-08	4.335781e-08	0.74054325
8.280067243564945e-10	3.736607e-09	3.8254957e-08	0.73375404
8.300310458023813e-10	-4.131667e-09	3.192371e-08	0.7295112
8.320059722035605e-10	-8.79008e-09	2.4888767e-08	0.727781
8.340302707393494e-10	-1.0864144e-08	1.8559579e-08	0.7280953
8.360052166341447e-10	-1.0518467e-08	1.3300346e-08	0.7300415
8.380295613974999e-10	-9.3497485e-09	8.804483e-09	0.73343015
8.400045196010293e-10	-8.345638e-09	6.8230115e-09	0.7379201
8.4202889115253e-10	-6.485565e-09	5.135777e-09	0.7435679
8.440039004394712e-10	-5.7777494e-09	4.609031e-09	0.74990624
8.460282714382286e-10	-4.872404e-09	3.6872247e-09	0.75704443
8.480032681704086e-10	-4.59257e-09	2.8641833e-09	0.764455
8.500276397918933e-10	-4.4773443e-09	1.7119257e-09	0.7723571
8.520026332094061e-10	-3.8847547e-09	4.609031e-10	0.78024244
8.540270153981559e-10	-2.534967e-09	2.6337318e-10	0.78838646
8.560020042039318e-10	-5.925897e-10	2.4691237e-11	0.79627585
8.580263662253671e-10	7.571979e-10	4.4855747e-10	0.80418265
8.600013513185082e-10	2.3703588e-09	1.9752988e-09	0.8116072
8.620257127894603e-10	2.4032802e-09	2.4711813e-09	0.81881666
8.640006908486493e-10	2.4032802e-09	2.9711789e-09	0.82537967
8.660250499664704e-10	3.1934e-09	5.0040905e-09	0.83156925
8.680493706218838e-10	2.897105e-09	5.9258967e-09	0.8371895
8.700243315950254e-10	2.5678886e-09	7.999961e-09	0.8421279
8.720486483172467e-10	1.6131608e-09	7.473214e-09	0.84665984
8.740235977917099e-10	7.2427625e-10	5.366229e-09	0.85061014
8.760479040223858e-10	1.679004e-09	4.213971e-09	0.8542342
8.780228470726121e-10	2.5020452e-09	4.1481276e-09	0.85741574
8.800471298065153e-10	3.0781742e-09	5.3991505e-09	0.8603747
8.820220587863383e-10	3.2592433e-09	7.3744495e-09	0.86302155
8.840463580736209e-10	1.679004e-09	9.020532e-09	0.8655386
8.86021290273532e-10	6.255113e-10	9.77773e-09	0.8678448
8.880455925849057e-10	-1.3827093e-09	9.020532e-09	0.87009245
8.900205132315246e-10	-2.0740638e-09	7.901195e-09	0.8722023
8.920448119465266e-10	-1.8436124e-09	6.9793895e-09	0.87430686
8.940197474640582e-10	-1.9094557e-09	6.5843295e-09	0.8763272
8.960440456988128e-10	-1.5473175e-09	6.4526433e-09	0.878386
8.980189762699618e-10	-1.679004e-09	7.242763e-09	0.88040245
9.000432881172069e-10	-1.4485525e-09	7.901195e-09	0.88249725
9.020182335973115e-10	-2.897105e-09	9.283905e-09	0.88458735
9.040425286660918e-10	-3.9835193e-09	9.415592e-09	0.8867978
9.060174644105879e-10	-5.5966805e-09	9.3497485e-09	0.8890421
9.08041791374256e-10	-7.045233e-09	8.559629e-09	0.8914567
9.10016728578693e-10	-8.362099e-09	7.5719795e-09	0.89395
9.120410569956423e-10	-9.613121e-09	6.5843295e-09	0.89667726
9.14016001172776e-10	-1.0666614e-08	5.99174e-09	0.89953935
9.160403310544839e-10	-1.10945955e-08	5.267464e-09	0.9027191
9.180152824359729e-10	-1.24773045e-08	4.213971e-09	0.9061046
9.200396306979466e-10	-1.4090466e-08	3.0287917e-09	0.9099138
9.220146047894827e-10	-1.6098687e-08	1.777769e-09	0.914009
9.240389484168071e-10	-1.837028e-08	-1.5802392e-09	0.91863763
9.260139433889133e-10	-2.034558e-08	-4.839482e-09	0.9235972
9.280382945595329e-10	-2.156368e-08	-1.0534928e-08	0.92911214
9.30013296150603e-10	-2.278178e-08	-1.698757e-08	0.93479925
9.320376862617176e-10	-2.1267384e-08	-2.5810573e-08	0.9406441
9.34012712536176e-10	-1.7415552e-08	-3.555538e-08	0.9457463
9.360371206266046e-10	-9.613121e-09	-4.71438e-08	0.94911087
9.380121468500993e-10	2.3374371e-09	-5.6559394e-08	0.94836676
9.40036571814457e-10	1.9571921e-08	-6.255113e-08	0.9399912
9.420116217247e-10	3.993396e-08	-5.912728e-08	0.921326
9.44036042435905e-10	5.998324e-08	-4.3456577e-08	0.8928255
9.460110847965145e-10	7.3546964e-08	-2.6864065e-08	0.8633808
9.480354999537554e-10	7.993376e-08	-8.032882e-09	0.8363714
9.500106514102564e-10	7.552226e-08	1.580239e-08	0.8127252
9.520353719865737e-10	6.123427e-08	3.772821e-08	0.79114187
9.540106982553217e-10	4.1859877e-08	5.1291927e-08	0.77302456
9.560348880566565e-10	2.1806477e-08	5.6460628e-08	0.7577457
9.580096844207809e-10	5.275694e-09	5.4847465e-08	0.7461258
9.600339690771803e-10	-7.333297e-09	4.7077958e-08	0.73742217
9.620089036932908e-10	-1.5703627e-08	3.7003932e-08	0.7317353
9.640331955302227e-10	-1.9522538e-08	2.6995751e-08	0.72853017
9.660081170849567e-10	-2.0049283e-08	1.7999911e-08	0.72767794
9.680324176090432e-10	-1.8041064e-08	1.06995355e-08	0.7287179
9.700073527022738e-10	-1.5835314e-08	5.9258967e-09	0.7312418
9.720316734994854e-10	-1.3152198e-08	2.633732e-09	0.735142
9.740066357897586e-10	-1.08970655e-08	5.2674637e-10	0.7400672
9.760310057002868e-10	-8.427942e-09	-1.3168659e-10	0.74608445
9.780059854902741e-10	-7.4402924e-09	-8.5596286e-10	0.7527004
9.800303511783627e-10	-6.9793895e-09	-1.6460824e-09	0.7600445
9.82005341583618e-10	-5.1028555e-09	-2.9629483e-09	0.7675923
9.840296793503489e-10	-3.4896948e-09	-3.1275567e-09	0.7755818
9.860046818580475e-10	-1.1193361e-09	-2.7654186e-09	0.78350544
9.880290319637042e-10	4.609031e-10	-1.5884696e-09	0.7916407