# t (s)	mx ()	my ()	mz ()	E_total (J)	MaxAngle (rad)
0	1.1152208e-09	4.2798143e-10	0.97954816	-2.0725796e-17	0.26632476
2.5238035341259842e-12	-7.925887e-09	-8.844401e-08	0.9758755	-2.0712343e-17	0.2520999
5.001244315079026e-12	5.8600534e-08	-1.6164529e-07	0.97316	-2.0690262e-17	0.24438453
7.523927424739047e-12	1.8182627e-07	-1.7804028e-07	0.97144	-2.0661865e-17	0.24023135
1.0045583021343403e-11	3.1288735e-07	-1.12295744e-07	0.97102094	-2.0630685e-17	0.23914997
1.2517122204891282e-11	3.8630262e-07	2.1497836e-08	0.9719901	-2.0600434e-17	0.24136731
1.5037481509213293e-11	3.67241e-07	1.8100323e-07	0.9743145	-2.0572347e-17	0.24369876
1.7507960115632313e-11	2.5619627e-07	3.137433e-07	0.9776864	-2.0549176e-17	0.25210637
2.002748699141586e-11	7.111076e-08	3.797183e-07	0.98189676	-2.0531389e-17	0.27097693
2.2546744280580016e-11	-1.4235322e-07	3.3418766e-07	0.98639745	-2.0521046e-17	0.3343536
2.5016409290997583e-11	-2.9833598e-07	1.5881403e-07	0.99039644	-2.0520253e-17	0.64297384
2.7505996027243303e-11	-4.8223217e-07	1.5802391e-07	0.99305797	-2.0862607e-17	0.11483516
3.002006328822597e-11	-3.5087893e-07	-3.110108e-07	0.9935109	-2.0951256e-17	0.0888051
3.254385571009922e-11	-4.872404e-08	-4.6189072e-07	0.9936216	-2.0967482e-17	0.08880174
3.5015854912866924e-11	3.3443456e-07	-4.952074e-07	0.99370337	-2.0975476e-17	0.08880308
3.7534677261946804e-11	7.3866715e-07	-7.440293e-08	0.9937987	-2.0981276e-17	0.08880241
4.00019015774025e-11	5.3721135e-07	6.4157706e-07	0.99389935	-2.0986575e-17	0.08880443
4.251898032436639e-11	-3.3686254e-07	8.300206e-07	0.9939838	-2.0991447e-17	0.08879435
4.5037201294370904e-11	-9.4534516e-07	7.2625156e-08	0.99404585	-2.0995207e-17	0.088820554
4.7505910869939534e-11	-5.4775865e-07	-8.290988e-07	0.9940973	-2.0997859e-17	0.0887977
5.002249665861209e-11	4.731417e-07	-9.047198e-07	0.99412435	-2.0999811e-17	0.08881316
5.2538340409498856e-11	1.0309167e-06	-1.8831184e-08	0.9941623	-2.1001414e-17	0.08882593
5.500553602584047e-11	5.204337e-07	9.007363e-07	0.9942004	-2.100276e-17	0.08881249
5.7522911908919776e-11	-5.696433e-07	8.942178e-07	0.99420756	-2.1003864e-17	0.08879838
6.004023115548659e-11	-1.0826964e-06	-8.50037e-08	0.9942068	-2.100471e-17	0.08881854
6.250749465088893e-11	-4.6765203e-07	-1.002925e-06	0.9942336	-2.1005332e-17	0.088829294
6.502371692949876e-11	6.774452e-07	-8.9718077e-07	0.99426377	-2.1005833e-17	0.08881653
6.754028787258234e-11	1.1283524e-06	1.9028712e-07	0.99426347	-2.100624e-17	0.08880107
7.000798444596321e-11	3.8135616e-07	1.1061674e-06	0.9942482	-2.1006554e-17	0.08880913
7.252501122239885e-11	-8.2178195e-07	8.7255535e-07	0.9942477	-2.10068e-17	0.08880712
7.504165639158914e-11	-1.1800354e-06	-3.2562804e-07	0.994268	-2.1006988e-17	0.088820554
7.750873100054656e-11	-2.910891e-07	-1.2132286e-06	0.9942846	-2.1007133e-17	0.08881115
8.002535737931814e-11	9.609171e-07	-8.3588066e-07	0.99428046	-2.1007248e-17	0.08880241
8.254223795285043e-11	1.2127018e-06	4.776273e-07	0.9942671	-2.1007337e-17	0.08880712
8.500977789550898e-11	1.716864e-07	1.3223968e-06	0.99426436	-2.100741e-17	0.08880443
8.752646711549028e-11	-1.1134616e-06	7.8478627e-07	0.99427533	-2.1007464e-17	0.08881182
9.004304482757856e-11	-1.2368705e-06	-6.3407094e-07	0.99428535	-2.1007506e-17	0.08880779
9.2510361398796e-11	-3.995865e-08	-1.4193511e-06	0.9942834	-2.1007542e-17	0.08880241
9.502715379319631e-11	1.2684546e-06	-7.082105e-07	0.9942752	-2.1007567e-17	0.0888051
9.754394479224099e-11	1.2447017e-06	8.1290136e-07	0.9942724	-2.1007588e-17	0.08880375
1.0001129001272508e-10	-1.10945955e-07	1.5146592e-06	0.9942777	-2.1007602e-17	0.08880644
1.0252791996104855e-10	-1.4223345e-06	6.181369e-07	0.99428314	-2.1007613e-17	0.08880577
1.05044594818784e-10	-1.2326194e-06	-9.95419e-07	0.9942825	-2.1007625e-17	0.08880107
1.0751199848285508e-10	2.847887e-07	-1.5944613e-06	0.99427825	-2.1007631e-17	0.08880375
1.1002878340990074e-10	1.5803708e-06	-4.990922e-07	0.9942764	-2.1007636e-17	0.08880241
1.1254547608850268e-10	1.2028747e-06	1.1930805e-06	0.9942789	-2.1007643e-17	0.08880443
1.150128139062488e-10	-4.7236804e-07	1.6640905e-06	0.9942818	-2.1007646e-17	0.08880375
1.1752950459292534e-10	-1.7296376e-06	3.604262e-07	0.9942815	-2.1007648e-17	0.08880107
1.2004624088857203e-10	-1.1459202e-06	-1.3957463e-06	0.9942792	-2.1007651e-17	0.08880241
1.2251364844634385e-10	6.8451516e-07	-1.7144278e-06	0.99427825	-2.1007653e-17	0.08880174
1.250303659288985e-10	1.8771162e-06	-1.9436942e-07	0.9942795	-2.1007655e-17	0.08880375
1.2754704985499274e-10	1.0668425e-06	1.6067081e-06	0.99428105	-2.1007658e-17	0.08880308
1.3001440119184704e-10	-9.1072803e-07	1.7459008e-06	0.9942809	-2.1007653e-17	0.08880174
1.3253111249353403e-10	-2.01213e-06	2.633732e-09	0.9942796	-2.1007656e-17	0.08880174
1.350478422589016e-10	-9.561105e-07	-1.8215549e-06	0.994279	-2.1007656e-17	0.08880174
1.3751520719722756e-10	1.1583503e-06	-1.7544605e-06	0.9942796	-2.1007656e-17	0.08880308
1.400319086856298e-10	2.1382612e-06	2.160977e-07	0.9942806	-2.1007656e-17	0.08880107
1.4254860768006284e-10	8.186133e-07	2.0381135e-06	0.9942805	-2.1007658e-17	0.08880174
1.4501598538540026e-10	-1.4192173e-06	1.7368803e-06	0.99427986	-2.1007656e-17	0.08880107
1.475327046876497e-10	-2.244993e-06	-4.6221996e-07	0.9942795	-2.1007656e-17	0.08880107
1.5000006499853005e-10	-6.9389785e-07	-2.2373881e-06	0.99427986	-2.1007656e-17	0.08880107
1.5251676700621736e-10	1.6973661e-06	-1.6903291e-06	0.9942803	-2.1007656e-17	0.08880174
1.5503347319995583e-10	2.3356429e-06	7.3467953e-07	0.9942803	-2.100766e-17	0.08880174
1.575008447064884e-10	4.954379e-07	2.451741e-06	0.9942799	-2.1007658e-17	0.08880241
1.600175624759382e-10	-1.984089e-06	1.6103953e-06	0.9942796	-2.1007658e-17	0.08880174
1.625342834874373e-10	-2.3989842e-06	-1.0330814e-06	0.99427986	-2.1007656e-17	0.08880241
1.650016402846807e-10	-2.587724e-07	-2.656382e-06	0.9942801	-2.1007658e-17	0.08880174
1.6751835406626515e-10	2.2824784e-06	-1.4943795e-06	0.9942801	-2.100766e-17	0.08880174
1.700350582604234e-10	2.435988e-06	1.3576888e-06	0.9942799	-2.1007656e-17	0.08880107
1.725024195814608e-10	-1.2403231e-08	2.8486445e-06	0.99427986	-2.1007658e-17	0.08880241
1.7501913281995583e-10	-2.5841025e-06	1.3389893e-06	0.99427986	-2.1007656e-17	0.08880174
1.77535844078769e-10	-2.4370415e-06	-1.7054401e-06	0.99428004	-2.1007658e-17	0.08880107
1.8000320550830572e-10	3.243523e-07	-3.021944e-06	0.99428004	-2.1007656e-17	0.08880107
1.8251992113626336e-10	2.8903726e-06	-1.1391548e-06	0.9942799	-2.1007658e-17	0.08880174
1.8503662445172427e-10	2.4028852e-06	2.07571e-06	0.9942799	-2.1007656e-17	0.08880241
1.8750398816077729e-10	-6.715234e-07	3.1731201e-06	0.9942799	-2.1007658e-17	0.08880174
1.9002070132538027e-10	-3.1907332e-06	8.9625894e-07	0.99428004	-2.1007658e-17	0.08880241
1.9253741731204199e-10	-2.323935e-06	-2.4641195e-06	0.99428004	-2.1007658e-17	0.08880174
1.9500477925648162e-10	1.0593693e-06	-3.295062e-06	0.99428	-2.1007658e-17	0.08880174
1.975214899248778e-10	3.486666e-06	-6.039147e-07	0.9942799	-2.1007658e-17	0.08880174
2.0003819894914219e-10	2.2007382e-06	2.8699776e-06	0.9942799	-2.1007656e-17	0.08880174
2.0250555604752473e-10	-1.4820894e-06	3.384082e-06	0.99428004	-2.1007658e-17	0.08880174
2.0502227031210402e-10	-3.7664013e-06	2.6297812e-07	0.99428004	-2.1007656e-17	0.08880241
2.0753899002785953e-10	-2.0238583e-06	-3.2861074e-06	0.99428	-2.1007655e-17	0.08880174
2.1000633914515347e-10	1.9423567e-06	-3.4318844e-06	0.9942799	-2.1007656e-17	0.08880241
2.125230545433994e-10	4.028826e-06	1.3069895e-07	0.9942799	-2.1007658e-17	0.08880174
2.1503976826615985e-10	1.7933245e-06	3.7094796e-06	0.99428004	-2.1007658e-17	0.08880241
2.1750713536840413e-10	-2.4335025e-06	3.433267e-06	0.99428	-2.1007658e-17	0.08880174
2.2002384072248832e-10	-4.262226e-06	-5.757338e-07	0.99428	-2.1007658e-17	0.08880241
2.225405620890863e-10	-1.4993835e-06	-4.132852e-06	0.99428	-2.1007656e-17	0.08880174
2.250079281042448e-10	2.9587839e-06	-3.3801643e-06	0.9942799	-2.1007656e-17	0.08880174
2.275246380445398e-10	4.4648586e-06	1.075221e-06	0.99428004	-2.1007658e-17	0.08880174
2.3004134490333915e-10	1.1445952e-06	4.5516153e-06	0.99428004	-2.1007658e-17	0.08880174
2.3250870791049033e-10	-3.5075136e-06	3.2687246e-06	0.99428	-2.1007658e-17	0.08880107
2.350254223919538e-10	-4.622716e-06	-1.625671e-06	0.9942799	-2.1007656e-17	0.08880174
2.375421344998421e-10	-7.1978246e-07	-4.9570785e-06	0.99428004	-2.1007658e-17	0.08880107
2.40009513323038e-10	4.0808936e-06	-3.0894992e-06	0.99428004	-2.1007658e-17	0.08880241
2.425262136692119e-10	4.733491e-06	2.2289273e-06	0.99428	-2.1007658e-17	0.08880241
2.450429213279866e-10	2.277602e-07	5.3419985e-06	0.99428	-2.1007656e-17	0.08880174
2.4751028864658503e-10	-4.666479e-06	2.837846e-06	0.99428	-2.1007656e-17	0.08880107
2.500269934173323e-10	-4.7821986e-06	-2.8802492e-06	0.99428	-2.1007656e-17	0.08880174
2.525437041722216e-10	3.405374e-07	-5.6962353e-06	0.9942799	-2.1007658e-17	0.08880174
2.5501107927969493e-10	5.2651594e-06	-2.5052059e-06	0.9942799	-2.1007658e-17	0.08880107
2.5752778498847365e-10	4.76638e-06	3.5782539e-06	0.99428004	-2.1007658e-17	0.08880174
2.6004450559742254e-10	-9.782915e-07	6.012415e-06	0.99428	-2.1007658e-17	0.08880241
2.6251186574371565e-10	-5.8609876e-06	2.0901955e-06	0.99428	-2.1007658e-17	0.08880174
2.6502857328018545e-10	-4.671804e-06	-4.3154355e-06	0.99428	-2.1007658e-17	0.08880241
2.6754527326644483e-10	1.6919835e-06	-6.2764466e-06	0.99428	-2.1007655e-17	0.08880174
2.7001265667037893e-10	6.4507667e-06	-1.5823462e-06	0.99428	-2.1007658e-17	0.08880241
2.725293670652242e-10	4.4926155e-06	5.0894237e-06	0.99428004	-2.1007658e-17	0.08880174
2.750460783823532e-10	-2.476778e-06	6.480824e-06	0.99428	-2.1007658e-17	0.08880174
2.775134342294989e-10	-7.019558e-06	9.800117e-07	0.99428	-2.1007658e-17	0.08880241
2.8003014614736236e-10	-4.215749e-06	-5.8911314e-06	0.99428004	-2.1007658e-17	0.08880174
2.8254686080305464e-10	3.3353826e-06	-6.611062e-06	0.99428004	-2.1007658e-17	0.08880174
2.8501423186226444e-10	7.5610246e-06	-2.772003e-07	0.99428004	-2.1007656e-17	0.08880174
2.875309428627651e-10	3.8376684e-06	6.7141727e-06	0.99428	-2.1007656e-17	0.08880174
2.90047651619481e-10	-4.2583e-06	6.6583375e-06	0.99428004	-2.1007658e-17	0.08880107
2.925150255616849e-10	-8.057072e-06	-5.2595624e-07	0.99428	-2.1007658e-17	0.08880174
2.9503172772393915e-10	-3.3440165e-06	-7.544819e-06	0.99428004	-2.1007658e-17	0.08880174
2.975484454429774e-10	5.245715e-06	-6.6057946e-06	0.99428004	-2.1007656e-17	0.08880241
3.0001580989515926e-10	8.498822e-06	1.4347254e-06	0.9942799	-2.1007658e-17	0.08880174
3.025325186382054e-10	2.7322335e-06	8.375004e-06	0.99428	-2.1007658e-17	0.08880241
3.050492276528012e-10	-6.286792e-06	6.445203e-06	0.99428004	-2.1007658e-17	0.08880107
3.0751660060621636e-10	-8.867294e-06	-2.4459468e-06	0.99428	-2.1007656e-17	0.08880241
3.1003329954916576e-10	-1.990556e-06	-9.1888605e-06	0.99428004	-2.1007658e-17	0.08880174
3.125006575944838e-10	7.240071e-06	-6.3139773e-06	0.99428004	-2.1007658e-17	0.08880241
3.150173820766647e-10	9.151057e-06	3.5605422e-06	0.99428004	-2.1007658e-17	0.08880174
3.1753408615007795e-10	1.1171242e-06	9.973284e-06	0.99428004	-2.1007658e-17	0.08880174
3.200014459392603e-10	-8.371432e-06	5.9184235e-06	0.99428004	-2.1007658e-17	0.08880241
3.225181664349608e-10	-9.328127e-06	-4.7731123e-06	0.99428	-2.1007656e-17	0.08880174
3.250348721020878e-10	-1.01546824e-07	-1.0709676e-05	0.99428004	-2.1007658e-17	0.08880241
3.275022481599582e-10	9.532702e-06	-5.373735e-06	0.99428004	-2.1007658e-17	0.08880174
3.300189491616828e-10	9.386785e-06	6.0818465e-06	0.99428004	-2.1007658e-17	0.08880174
3.325356576026333e-10	-1.0543323e-06	1.1382528e-05	0.99428	-2.1007658e-17	0.08880241
3.350030223655384e-10	-1.0703705e-05	4.67066e-06	0.99428004	-2.1007658e-17	0.08880174
3.3751974311663485e-10	-9.304866e-06	-7.476638e-06	0.99428	-2.1007656e-17	0.08880241
3.400364452046422e-10	2.3569926e-06	-1.1970838e-05	0.99428	-2.1007656e-17	0.08880174
3.42503815212668e-10	1.1874077e-05	-3.7965244e-06	0.9942799	-2.1007656e-17	0.08880174
3.45020525819528e-10	9.069542e-06	8.950211e-06	0.99428004	-2.1007658e-17	0.08880241
3.4753723497873087e-10	-3.8011294e-06	1.2456103e-05	0.99428004	-2.1007658e-17	0.08880174
3.5000460777858087e-10	-1.3018792e-05	2.74211e-06	0.99428	-2.1007656e-17	0.08880174
3.525213075909676e-10	-8.657149e-06	-1.0487257e-05	0.9942799	-2.1007656e-17	0.08880241
3.5503802350014576e-10	5.390451e-06	-1.28125785e-05	0.99428004	-2.1007656e-17	0.08880174
3.575053849717809e-10	1.4122984e-05	-1.497935e-06	0.99428004	-2.1007656e-17	0.08880174
3.6002209841981786e-10	8.054956e-06	1.2076188e-05	0.99428004	-2.1007658e-17	0.08880174
3.6253880842773324e-10	-7.112619e-06	1.3019985e-05	0.99428	-2.1007658e-17	0.08880174
3.650061783900378e-10	-1.5156616e-05	5.7349514e-08	0.99428	-2.1007656e-17	0.08880174
3.6752289097946595e-10	-7.23952e-06	-1.3696723e-05	0.99428	-2.1007655e-17	0.08880174
3.7003959724319404e-10	8.968139e-06	-1.3051195e-05	0.99428	-2.1007658e-17	0.08880174
3.7250696073398816e-10	1.6101241e-05	1.5855067e-06	0.99428004	-2.1007658e-17	0.08880174
3.750236689960448e-10	6.201451e-06	1.5329833e-05	0.99428004	-2.1007658e-17	0.08880174
3.775403776409736e-10	-1.0937847e-05	1.2884743e-05	0.99428	-2.1007658e-17	0.08880174
3.8000774797021486e-10	-1.6922766e-05	-3.431621e-06	0.99428	-2.1007656e-17	0.08880174
3.825244612852421e-10	-4.918441e-06	-1.695004e-05	0.99428	-2.1007658e-17	0.08880241
3.8504117631680273e-10	1.3014512e-05	-1.2492976e-05	0.99428004	-2.1007656e-17	0.08880174
3.875085431021716e-10	1.7597633e-05	5.481718e-06	0.99428004	-2.1007658e-17	0.08880174
3.9002525090551403e-10	3.3834153e-06	1.8532122e-05	0.99428	-2.1007658e-17	0.08880241
3.925419548696312e-10	-1.5173843e-05	1.1852188e-05	0.99428	-2.1007658e-17	0.08880174
3.950093348935915e-10	-1.8088438e-05	-7.730529e-06	0.99428004	-2.1007656e-17	0.08880241
3.975260406984941e-10	-1.5792268e-06	-2.0044017e-05	0.9942799	-2.1007658e-17	0.08880174
4.000427552129126e-10	1.739993e-05	-1.0936572e-05	0.99428004	-2.1007656e-17	0.08880174
4.0251011988580736e-10	1.8368082e-05	1.0172526e-05	0.9942799	-2.1007656e-17	0.08880241
4.050268296543334e-10	-4.9832676e-07	2.1454907e-05	0.99428	-2.1007658e-17	0.08880174
4.0754353287030776e-10	-1.9661129e-05	9.723738e-06	0.99428004	-2.1007658e-17	0.08880174
4.1001090539350394e-10	-1.839728e-05	-1.2795196e-05	0.9942799	-2.1007658e-17	0.08880107
4.1252761119159924e-10	2.8602492e-06	-2.2725682e-05	0.9942799	-2.1007656e-17	0.08880174
4.150443227278098e-10	2.193339e-05	-8.188667e-06	0.9942799	-2.1007658e-17	0.08880174
4.175116819650416e-10	1.8145869e-05	1.5584055e-05	0.9942799	-2.1007658e-17	0.08880241
4.2002840094082324e-10	-5.503306e-06	2.3819735e-05	0.99428	-2.100766e-17	0.08880107
4.2254511158557525e-10	-2.417602e-05	6.3134503e-06	0.99428	-2.1007658e-17	0.08880241
4.250124663590521e-10	-1.7573535e-05	-1.851698e-05	0.9942799	-2.1007658e-17	0.08880241
4.2752918477867465e-10	8.431547e-06	-2.469387e-05	0.9942799	-2.1007658e-17	0.08880241
4.30045890491947e-10	2.6357351e-05	-4.0781692e-06	0.99428004	-2.1007658e-17	0.08880241
4.3251325306195316e-10	1.6650247e-05	2.1569605e-05	0.99428004	-2.1007658e-17	0.08880241
4.3502996628113816e-10	-1.16326755e-05	2.5304897e-05	0.99428	-2.1007658e-17	0.08880241
4.375466807638192e-10	-2.8427474e-05	1.4684372e-06	0.99428	-2.1007658e-17	0.08880174
4.4001404309312834e-10	-1.5335858e-05	-2.471033e-05	0.9942799	-2.1007658e-17	0.08880174
4.425307617941997e-10	1.5100518e-05	-2.5604879e-05	0.99428	-2.1007658e-17	0.08880174
4.450474725103732e-10	3.034504e-05	1.5280913e-06	0.9942799	-2.1007656e-17	0.08880174
4.47514829881869e-10	1.3601587e-05	2.7902941e-05	0.9942799	-2.1007658e-17	0.08880174
4.5003154959153984e-10	-1.8812076e-05	2.5548385e-05	0.99428	-2.100766e-17	0.08880174
4.525482597281022e-10	-3.205302e-05	-4.9167825e-06	0.99428	-2.1007658e-17	0.08880174
4.5501562083616506e-10	-1.1411582e-05	-3.1103584e-05	0.9942799	-2.1007656e-17	0.08880241
4.575323391959503e-10	2.2749864e-05	-2.5083662e-05	0.99428004	-2.1007656e-17	0.08880241
4.600490508081175e-10	3.350107e-05	8.70185e-06	0.99428004	-2.1007658e-17	0.08880174
4.6251640934011166e-10	8.740336e-06	3.4265213e-05	0.9942799	-2.1007658e-17	0.08880174
4.6503312442927315e-10	-2.6878592e-05	2.4163832e-05	0.9942799	-2.100766e-17	0.08880174
4.675004870393974e-10	-3.487765e-05	-1.2130113e-05	0.99428	-2.1007656e-17	0.08880241
4.700172094733446e-10	-5.558516e-06	-3.7331305e-05	0.9942799	-2.1007656e-17	0.08880241
4.725339036320815e-10	3.116444e-05	-2.2738455e-05	0.9942799	-2.1007656e-17	0.08880241
4.750012759567898e-10	3.5717014e-05	1.6666781e-05	0.99428	-2.1007655e-17	0.08880241
4.77517989486531e-10	1.8494477e-06	4.024296e-05	0.9942799	-2.1007656e-17	0.08880241
4.800346926242599e-10	-3.5558558e-05	2.0760523e-05	0.99428	-2.1007658e-17	0.08880174
4.825020518857299e-10	-3.611436e-05	-2.1574479e-05	0.99428	-2.1007656e-17	0.08880174
4.850187679864462e-10	2.4063256e-06	-4.2930555e-05	0.99428	-2.1007656e-17	0.08880174
4.875354805568966e-10	4.0011488e-05	-1.8182758e-05	0.9942799	-2.1007656e-17	0.08880107
4.900028458907289e-10	3.6004723e-05	2.6829432e-05	0.9942799	-2.1007656e-17	0.08880174
4.925195612242037e-10	-7.2152134e-06	4.5322246e-05	0.99428	-2.1007658e-17	0.08880174
4.950362707817131e-10	-4.4456523e-05	1.4961506e-05	0.99428	-2.1007656e-17	0.08880174
4.975036457431828e-10	-3.531407e-05	-3.239609e-05	0.9942799	-2.1007658e-17	0.08880174
5.000203466322472e-10	1.2584177e-05	-4.7338697e-05	0.9942799	-2.1007656e-17	0.08880107
5.025370557579675e-10	4.882967e-05	-1.1057987e-05	0.9942799	-2.1007656e-17	0.08880174
5.050044162472324e-10	3.398094e-05	3.8233557e-05	0.99428	-2.1007656e-17	0.08880174
5.075211341268087e-10	-1.8500905e-05	4.8900238e-05	0.99428	-2.1007656e-17	0.08880241
5.10037849435755e-10	-5.3048192e-05	6.4407914e-06	0.9942799	-2.1007656e-17	0.08880174
5.125052191717759e-10	-3.1929092e-05	-4.428594e-05	0.99428	-2.1007658e-17	0.08880107
5.150219373682958e-10	2.4954494e-05	-4.991317e-05	0.99428004	-2.1007656e-17	0.08880107
5.175386378564915e-10	5.7027224e-05	-1.0785133e-06	0.9942799	-2.1007656e-17	0.08880174
5.200060010132088e-10	2.9095767e-05	5.0489958e-05	0.9942799	-2.1007656e-17	0.08880174
5.225227200758586e-10	-3.1914227e-05	5.028874e-05	0.9942799	-2.1007658e-17	0.08880241
5.250394350613878e-10	-6.066729e-05	-5.0464937e-06	0.9942799	-2.1007658e-17	0.08880241
5.275067949822035e-10	-2.5410074e-05	-5.6768247e-05	0.99428	-2.1007656e-17	0.08880107
5.300235160145442e-10	3.934842e-05	-4.9930815e-05	0.99428	-2.1007656e-17	0.08880174
5.325402399448079e-10	6.3870015e-05	1.1946476e-05	0.99428	-2.1007656e-17	0.08880174
5.350075910459056e-10	2.0817906e-05	6.303633e-05	0.9942799	-2.1007656e-17	0.08880174
5.375243108103075e-10	-4.720019e-05	4.874465e-05	0.99428	-2.1007656e-17	0.08880241
5.400410245554929e-10	-6.651942e-05	-1.9618932e-05	0.99428	-2.1007656e-17	0.08880241
5.425083862987038e-10	-1.5258991e-05	-6.919275e-05	0.9942799	-2.1007656e-17	0.08880174
5.450250912231549e-10	5.541161e-05	-4.6632988e-05	0.9942799	-2.1007656e-17	0.08880174
5.475418000396919e-10	6.85027e-05	2.8053459e-05	0.99428	-2.1007656e-17	0.08880174
5.50009166488559e-10	8.691118e-06	7.512661e-05	0.9942799	-2.1007656e-17	0.08880174
5.525258876623986e-10	-6.389763e-05	4.3498945e-05	0.9942799	-2.1007653e-17	0.08880174
5.550426002114357e-10	-6.968883e-05	-3.722451e-05	0.9942799	-2.1007655e-17	0.08880241
5.575099653069629e-10	-1.0693775e-06	-8.071328e-05	0.9942799	-2.1007656e-17	0.08880174
5.600266874295268e-10	7.257191e-05	-3.924906e-05	0.9942799	-2.1007656e-17	0.08880174
5.625433943481644e-10	6.99567e-05	4.7092115e-05	0.99427986	-2.1007656e-17	0.08880241
5.650107516464905e-10	-7.625864e-06	8.581943e-05	0.99427986	-2.1007656e-17	0.08880174
5.6752747393044e-10	-8.1317936e-05	3.3797234e-05	0.9942799	-2.1007656e-17	0.08880241
5.70044192088813e-10	-6.9166854e-05	-5.7598136e-05	0.9942799	-2.1007656e-17	0.08880174
5.725115546168773e-10	1.7416178e-05	-9.0296184e-05	0.9942799	-2.1007651e-17	0.08880174
5.75028273893819e-10	9.001503e-05	-2.7056327e-05	0.99427986	-2.1007655e-17	0.08880174
5.775449851462598e-10	6.7190274e-05	6.866758e-05	0.99427986	-2.1007656e-17	0.08880174
5.800123471329477e-10	-2.8294351e-05	9.3987655e-05	0.99427986	-2.1007651e-17	0.08880241
5.82529058816486e-10	-9.851564e-05	1.8957075e-05	0.99427986	-2.1007653e-17	0.08880174
5.850457732257226e-10	-6.388727e-05	-8.020662e-05	0.9942799	-2.1007655e-17	0.08880174
5.875131425202955e-10	4.02486e-05	-9.672499e-05	0.99427986	-2.1007651e-17	0.08880241
5.900298545254233e-10	0.00010666473	-9.431987e-06	0.99427986	-2.1007651e-17	0.08880241
5.925465614949373e-10	5.912982e-05	9.210108e-05	0.99427986	-2.1007651e-17	0.08880107
5.950139315463674e-10	-5.323616e-05	9.8335055e-05	0.99427986	-2.1007651e-17	0.08880174
5.975306364659788e-10	-0.00011428156	-1.563877e-06	0.99427986	-2.1007651e-17	0.08880174
6.000473481236509e-10	-5.2785508e-05	-0.000104213614	0.99427986	-2.1007651e-17	0.08880174
6.025147187521905e-10	6.720302e-05	-9.863548e-05	0.99427986	-2.1007651e-17	0.08880174
6.050314314253813e-10	0.000121178564	1.4067025e-05	0.99427986	-2.100765e-17	0.08880174
6.075481479295296e-10	4.473651e-05	0.00011638705	0.99427986	-2.1007653e-17	0.08880241
6.100155147944623e-10	-8.206335e-05	9.7438075e-05	0.99427986	-2.1007648e-17	0.08880241
6.125322232029344e-10	-0.00012714155	-2.8090199e-05	0.99427986	-2.1007653e-17	0.08880241
6.150489525758469e-10	-3.4865825e-05	-0.00012843827	0.99427986	-2.1007648e-17	0.08880174
6.175163079047003e-10	9.7715565e-05	-9.4553085e-05	0.99427986	-2.100765e-17	0.08880174
6.200330264467916e-10	0.0001319556	4.3629414e-05	0.9942798	-2.100765e-17	0.08880107
6.225003956120981e-10	2.6054942e-05	0.0001395808	0.9942798	-2.100765e-17	0.08880241
6.25017105813969e-10	-0.00011402013	8.979258e-05	0.9942798	-2.1007648e-17	0.08880107
6.275338217906874e-10	-0.00013537784	-6.0650895e-05	0.9942798	-2.1007648e-17	0.08880241
6.30001205080562e-10	-1.2511699e-05	-0.00015104057	0.9942798	-2.100765e-17	0.08880174
6.325179060278353e-10	0.00013081914	-8.2967825e-05	0.9942798	-2.100765e-17	0.08880241
6.350346341512859e-10	0.00013716724	7.9097816e-05	0.9942798	-2.1007648e-17	0.08880174
6.375019920648483e-10	-3.1076554e-06	0.00016173978	0.9942798	-2.1007646e-17	0.08880174
6.400187110534732e-10	-0.00014791374	7.389738e-05	0.9942798	-2.1007646e-17	0.08880174
6.425354251230575e-10	-0.00013706321	-9.887622e-05	0.9942798	-2.1007646e-17	0.08880174
6.450027828572256e-10	2.0856769e-05	-0.00017140433	0.99427974	-2.1007646e-17	0.08880241
6.475195107175447e-10	0.0001650835	-6.2410756e-05	0.9942796	-2.1007645e-17	0.08880174
6.500362331725985e-10	0.00013480727	0.00011986871	0.9942796	-2.1007645e-17	0.08880241
6.525036000446354e-10	-4.075136e-05	0.00017974114	0.9942796	-2.1007645e-17	0.08880174
6.550203127942045e-10	-0.00018206555	4.8350776e-05	0.9942796	-2.1007643e-17	0.08880174
6.575370297070589e-10	-0.00013013072	-0.00014191253	0.9942796	-2.1007645e-17	0.08880174
6.600044040331458e-10	6.278294e-05	-0.00018643227	0.9942796	-2.1007645e-17	0.08880241
6.625211032275309e-10	0.00019857378	-3.1577656e-05	0.99427956	-2.1007641e-17	0.08880241
6.650378323525366e-10	0.00012277385	0.00016481327	0.99427956	-2.100764e-17	0.08880174
6.675052014825771e-10	-8.6898945e-05	0.00019114546	0.99427956	-2.100764e-17	0.08880107
6.700219160812276e-10	-0.00021427785	1.1974032e-05	0.9942796	-2.1007641e-17	0.08880241
6.725386440301577e-10	-0.000112471505	-0.00018833039	0.99427956	-2.100764e-17	0.08880174
6.750060101765963e-10	0.00011302191	-0.00019353017	0.9942795	-2.1007636e-17	0.08880241
6.775227204106815e-10	0.00022882814	1.0545463e-05	0.99427956	-2.1007636e-17	0.08880174
6.800394392206127e-10	9.8983626e-05	0.00021218315	0.99427956	-2.1007636e-17	0.08880241
6.825068094091407e-10	-0.00014101442	0.00019322788	0.9942795	-2.1007635e-17	0.08880174
6.850235384484049e-10	-0.00024182998	-3.603709e-05	0.99427944	-2.1007633e-17	0.08880174
6.875402408136474e-10	-8.206918e-05	-0.00023604624	0.99427944	-2.1007633e-17	0.08880174
6.900076272548224e-10	0.00017070949	-0.00018986626	0.9942794	-2.1007635e-17	0.08880174
6.925243367515684e-10	0.00025287177	6.451464e-05	0.9942794	-2.100763e-17	0.08880174
6.950410625646894e-10	6.151935e-05	0.00025954942	0.9942793	-2.1007628e-17	0.08880241
6.975084336073868e-10	-0.00020187144	0.00018307524	0.9942793	-2.100763e-17	0.08880241
7.000251356910838e-10	-0.00026150266	-9.5949996e-05	0.9942793	-2.1007628e-17	0.08880174
7.025418546168896e-10	-3.7149795e-05	-0.00028227444	0.99427927	-2.1007626e-17	0.08880174
7.050092264065065e-10	0.00023422521	-0.00017248337	0.9942792	-2.1007625e-17	0.08880241
7.075259478886333e-10	0.00026725853	0.00013026787	0.9942792	-2.1007621e-17	0.08880174
7.10042643396257e-10	8.8110755e-06	0.00030376174	0.9942791	-2.1007621e-17	0.08880241
7.125100290615174e-10	-0.00026742817	0.00015772515	0.9942791	-2.1007621e-17	0.08880241
7.150267443687579e-10	-0.00026964332	-0.00016732849	0.9942791	-2.1007617e-17	0.08880174
7.175434613540703e-10	2.3618048e-05	-0.0003234998	0.994279	-2.1007612e-17	0.08880174
7.200108270568272e-10	0.0003010846	-0.00013845037	0.99427897	-2.1007615e-17	0.08880174
7.22527546935731e-10	0.00026815513	0.00020694021	0.99427897	-2.1007613e-17	0.08880174
7.250442681965743e-10	-6.0188042e-05	0.00034093863	0.99427897	-2.100761e-17	0.08880174
7.275116420326773e-10	-0.00033472636	0.00011433004	0.9942789	-2.1007607e-17	0.08880174
7.300283541994643e-10	-0.0002622711	-0.00024883807	0.9942788	-2.1007607e-17	0.08880174
7.325450694452745e-10	0.00010091331	-0.00035548315	0.9942788	-2.1007603e-17	0.08880241
7.350124470851236e-10	0.00036783048	-8.506691e-05	0.9942787	-2.1007602e-17	0.08880174
7.375291541592937e-10	0.00025147994	0.00029268741	0.99427867	-2.10076e-17	0.08880174
7.400458627744964e-10	-0.00014572918	0.0003665083	0.99427855	-2.1007595e-17	0.08880241
7.425132335972017e-10	-0.00039980133	5.0407783e-05	0.99427855	-2.1007593e-17	0.08880241
7.45029939295021e-10	-0.00023526259	-0.00033807373	0.9942785	-2.1007592e-17	0.08880174
7.47546662997902e-10	0.00019451404	-0.0003733498	0.9942784	-2.1007587e-17	0.08880174
7.500140400335863e-10	0.00042998837	-1.0133777e-05	0.9942783	-2.1007583e-17	0.08880241
7.525307394272131e-10	0.00021311894	0.0003845061	0.9942783	-2.1007582e-17	0.08880174
7.550474714162654e-10	-0.0002470546	0.00037531977	0.9942782	-2.1007575e-17	0.08880174
7.57514832455422e-10	-0.00045766795	-3.5899346e-05	0.9942781	-2.1007572e-17	0.08880174
7.600315501702416e-10	-0.00018456545	-0.0004314041	0.994278	-2.100757e-17	0.08880308
7.625482591582212e-10	0.0003030562	-0.00037171537	0.9942779	-2.1007569e-17	0.08880107
7.650156271937277e-10	0.00048206953	8.777945e-05	0.99427783	-2.1007562e-17	0.08880107
7.675323286118879e-10	0.00014917266	0.00047810332	0.99427766	-2.1007557e-17	0.08880241
7.700490569192264e-10	-0.000362128	0.00036181937	0.99427766	-2.1007554e-17	0.08880241
7.72516427447407e-10	-0.0005023562	-0.0001455096	0.9942775	-2.1007547e-17	0.08880241
7.750331362661871e-10	-0.000106525345	-0.00052385544	0.99427736	-2.1007544e-17	0.08880107
7.775004984997993e-10	0.0004161453	-0.00035372732	0.9942773	-2.1007537e-17	0.08880241
7.800172212323375e-10	0.0005176502	0.0002090046	0.99427724	-2.1007534e-17	0.08880174
7.82533931604741e-10	5.6293953e-05	0.00056781986	0.99427694	-2.1007529e-17	0.08880174
7.850012980481723e-10	-0.00048025875	0.00033047737	0.99427694	-2.1007522e-17	0.08880174
7.875180127895163e-10	-0.0005270133	-0.00027807837	0.9942768	-2.1007514e-17	0.08880241
7.900347154183082e-10	1.8002792e-06	-0.0006090625	0.9942767	-2.1007509e-17	0.08880174
7.925020831553142e-10	0.0005458166	-0.00029885344	0.99427646	-2.1007502e-17	0.08880241
7.950188010806776e-10	0.0005294821	0.00035243388	0.99427634	-2.1007497e-17	0.08880174
7.975355246433914e-10	-6.795081e-05	0.00064656645	0.99427617	-2.1007486e-17	0.08880174
8.000028702600468e-10	-0.0006119986	0.00025818014	0.994276	-2.1007481e-17	0.08880241
8.025196018148447e-10	-0.0005240484	-0.00043165154	0.99427587	-2.1007471e-17	0.08880174
8.05036298699706e-10	0.00014224024	-0.00067922694	0.99427575	-2.1007464e-17	0.08880174
8.075036835776806e-10	0.00067787425	-0.00020782238	0.9942754	-2.1007456e-17	0.08880174
8.100203760590902e-10	0.00050971506	0.0005151693	0.9942753	-2.1007448e-17	0.08880241
8.125370997064528e-10	-0.00022465816	0.00070586667	0.9942751	-2.1007438e-17	0.08880174
8.150044718445651e-10	-0.0007423684	0.00014723404	0.99427485	-2.1007428e-17	0.08880241
8.175211938156226e-10	-0.00048544834	-0.0006023051	0.9942746	-2.1007418e-17	0.08880241
8.200378928540246e-10	0.00031505153	-0.00072523666	0.9942744	-2.1007408e-17	0.08880174
8.225052405343628e-10	0.0008042969	-7.59326e-05	0.99427414	-2.1007395e-17	0.08880174
8.250219699836511e-10	0.00045027427	0.00069219474	0.99427384	-2.1007383e-17	0.08880241
8.275386995215219e-10	-0.000413126	0.00073603046	0.9942736	-2.100737e-17	0.08880241
8.300060773872663e-10	-0.0008623425	-6.4910296e-06	0.9942733	-2.1007362e-17	0.08880174
8.325227651270601e-10	-0.0004032054	-0.0007838422	0.994273	-2.1007345e-17	0.08880241
8.350395006703296e-10	0.000518426	-0.000736897	0.99427265	-2.1007332e-17	0.08880174
8.37506868232721e-10	0.0009150779	0.00010025814	0.9942723	-2.1007317e-17	0.08880241
8.400235826456613e-10	0.0003433321	0.0008760768	0.994272	-2.1007304e-17	0.08880241
8.425402932929473e-10	-0.0006303224	0.00072646135	0.99427164	-2.1007286e-17	0.08880241
8.450076669631383e-10	-0.0009609603	-0.00020550957	0.9942713	-2.100727e-17	0.08880308
8.475243759012851e-10	-0.0002698228	-0.0009675528	0.99427086	-2.1007254e-17	0.08880308
8.500411208302885e-10	0.00074802584	-0.0007033138	0.99427056	-2.1007238e-17	0.08880241
8.525084888778177e-10	0.0009983428	0.00032221965	0.9942701	-2.1007214e-17	0.08880241
8.550252032790914e-10	0.00018190891	0.0010567708	0.99426967	-2.1007198e-17	0.08880241
8.575419215425197e-10	-0.00087049836	0.00066607463	0.99426913	-2.1007175e-17	0.08880308
8.60009296771824e-10	-0.0010254716	-0.0004501579	0.9942687	-2.1007153e-17	0.08880241
8.625259950095996e-10	-7.897759e-05	-0.0011420401	0.9942682	-2.1007132e-17	0.08880241
8.65042728597463e-10	0.000996535	-0.0006133581	0.99426764	-2.1007107e-17	0.08880308