# t (s)	mx ()	my ()	mz ()
0	1.1522577e-09	3.950598e-10	0.97953594
2.5238303454349897e-12	9.417649e-09	-1.7646004e-08	0.97586113
5.001169755968133e-12	3.051837e-08	-2.4131568e-08	0.97314495
7.523995942125242e-12	5.5555283e-08	-1.3300346e-08	0.97142446
1.004565961351001e-11	7.387618e-08	1.458429e-08	0.971006
1.2517214486246549e-11	7.2855606e-08	4.8855725e-08	0.97197634
1.5037584930249564e-11	5.0600573e-08	7.749756e-08	0.97430223
1.7508135157424105e-11	1.3563719e-08	9.061272e-08	0.9776761
2.0027784669574854e-11	-3.015623e-08	8.2172434e-08	0.98188895
2.254722874002551e-11	-6.633712e-08	4.8197293e-08	0.9863921
2.5017071184144767e-11	-7.644407e-08	-3.6872247e-09	0.9903935
2.7508269968521503e-11	-1.11015915e-07	-2.6600691e-08	0.99305713
3.002638845133046e-11	-3.0222072e-08	-1.0156329e-07	0.9935103
3.25482014858404e-11	4.5481258e-08	-9.4386365e-08	0.9936208
3.5019142576564114e-11	1.2374836e-07	-5.5176685e-08	0.9937027
3.75369201922749e-11	1.5006923e-07	7.3514045e-08	0.99379796
4.0003461669227016e-11	2.6802336e-08	1.856781e-07	0.99389887
4.252021999895434e-11	-1.6128315e-07	1.1838625e-07	0.99398327
4.503834209717414e-11	-1.8814723e-07	-9.7349314e-08	0.9940455
4.750694402860989e-11	-6.195443e-09	-2.2241866e-07	0.99409693
5.0023479788172724e-11	1.970731e-07	-1.1641095e-07	0.9941242
5.253932435420571e-11	1.9879943e-07	1.1808995e-07	0.994162
5.500653260722686e-11	-6.3621086e-09	2.328219e-07	0.99420035
5.752392437722223e-11	-2.1285491e-07	1.0317645e-07	0.9942075
6.004125592331764e-11	-1.9533238e-07	-1.4287995e-07	0.9942067
6.250849069427265e-11	2.9287921e-08	-2.4493707e-07	0.9942335
6.50246778797266e-11	2.3432807e-07	-9.0995435e-08	0.99426377
6.754123005436804e-11	1.9261428e-07	1.6842715e-07	0.99426347
7.000892303647393e-11	-5.663758e-08	2.5520862e-07	0.9942482
7.252596499998167e-11	-2.5838145e-07	6.966221e-08	0.99424773
7.504260993455304e-11	-1.8574805e-07	-2.00427e-07	0.99426806
7.750969952491535e-11	8.804689e-08	-2.6482175e-07	0.9942846
8.00263200255581e-11	2.8175992e-07	-4.5859856e-08	0.99428046
8.254320701735582e-11	1.7501972e-07	2.3361201e-07	0.9942671
8.501074581294474e-11	-1.224068e-07	2.7158714e-07	0.99426436
8.752743737307877e-11	-3.0361167e-07	1.8304437e-08	0.9942752
9.004399639701485e-11	-1.601556e-07	-2.660069e-07	0.99428535
9.251130641772593e-11	1.5957535e-07	-2.7456656e-07	0.9942834
9.502811705174879e-11	3.248667e-07	1.4485526e-08	0.9942752
9.754491045556353e-11	1.4176885e-07	3.0050882e-07	0.9942724
1.0001224990559223e-10	-1.9790849e-07	2.750933e-07	0.9942777
1.025288780681619e-10	-3.421547e-07	-4.938247e-08	0.99428314
1.0504555799179309e-10	-1.1706938e-07	-3.3369383e-07	0.9942825
1.0751297236721257e-10	2.4188358e-07	-2.6995752e-07	0.99427825
1.1002974133361796e-10	3.6005173e-07	9.0073634e-08	0.9942764
1.1254645623853119e-10	8.991314e-08	3.6812986e-07	0.9942789
1.1501376665344423e-10	-2.8415087e-07	2.6073945e-07	0.9942818
1.1753046335483556e-10	-3.7017924e-07	-1.345837e-07	0.9942815
1.2004720104733693e-10	-5.3407145e-08	-3.998005e-07	0.9942792
1.2251460092658915e-10	3.3193663e-07	-2.454638e-07	0.99427825
1.25031321264461e-10	3.8046727e-07	1.8357112e-07	0.9942795
1.2754800814523984e-10	1.5102806e-08	4.3101022e-07	0.99428105
1.3001535469125395e-10	-3.7729856e-07	2.2557914e-07	0.9942809
1.3253208358788864e-10	-3.8258247e-07	-2.3506057e-07	0.9942796
1.350488127662846e-10	3.2106836e-08	-4.586644e-07	0.994279
1.3751617069882323e-10	4.2667278e-07	-1.9805664e-07	0.9942798
1.400328686828287e-10	3.8210513e-07	2.9161995e-07	0.9942805
1.4250023303482746e-10	-7.2258906e-08	4.852651e-07	0.9942806
1.450169514744595e-10	-4.7296888e-07	1.6421318e-07	0.99427986
1.4753367301007883e-10	-3.7250845e-07	-3.510106e-07	0.9942795
1.5000102780223148e-10	1.3108577e-07	-5.069605e-07	0.99427986
1.5251774410211384e-10	5.212567e-07	-1.2233684e-07	0.9942803
1.5503444774708786e-10	3.5851676e-07	4.136276e-07	0.9942803
1.5750180899316072e-10	-1.9273156e-07	5.24376e-07	0.9942799
1.6001852686593345e-10	-5.6568035e-07	7.348112e-08	0.9942796
1.625352436614826e-10	-3.3418766e-07	-4.776931e-07	0.99427986
1.6500258899831316e-10	2.6333615e-07	-5.351085e-07	0.9942801
1.6751930414181341e-10	6.1028504e-07	-1.6065764e-08	0.9942801
1.7003601329713892e-10	3.045664e-07	5.4478744e-07	0.99428
1.7250338761147398e-10	-3.367329e-07	5.407052e-07	0.99427986
1.7502009009941002e-10	-6.4865526e-07	-4.8460667e-08	0.99428
1.7753680676848439e-10	-2.6317156e-07	-6.107624e-07	0.99428004
1.800041714497003e-10	4.1726543e-07	-5.370179e-07	0.99428004
1.825208791990747e-10	6.843917e-07	1.225673e-07	0.99428
1.8503758242350236e-10	2.1436108e-07	6.7726415e-07	0.9942799
1.8750496363328177e-10	-4.989852e-07	5.2490276e-07	0.9942799
1.9002166591954862e-10	-7.1122696e-07	-2.0352164e-07	0.99428004
1.9253837965229921e-10	-1.5245192e-07	-7.4100046e-07	0.99428004
1.9500573524599685e-10	5.8847445e-07	-5.027794e-07	0.99428004
1.9752245486535263e-10	7.3458074e-07	2.9418786e-07	0.99428
2.0003916152353366e-10	8.266626e-08	8.0407835e-07	0.99428
2.0250653116892248e-10	-6.780666e-07	4.699236e-07	0.99428004
2.0502324456108053e-10	-7.468934e-07	-3.9110918e-07	0.99428004
2.0753995213933373e-10	7.6542833e-10	-8.622838e-07	0.99428004
2.1000731434925956e-10	7.7235836e-07	-4.2482094e-07	0.99428
2.1252403220863212e-10	7.517329e-07	4.9744614e-07	0.99428
2.150407365613007e-10	-9.3209415e-08	9.165387e-07	0.99428004
2.1750811679587946e-10	-8.647694e-07	3.6780065e-07	0.99428004
2.2002482636430964e-10	-7.421445e-07	-6.087871e-07	0.99428004
2.2254154026931788e-10	1.9983852e-07	-9.615096e-07	0.99428004
2.2500890093806773e-10	9.595756e-07	-2.9570225e-07	0.9942799
2.2752561964652718e-10	7.23873e-07	7.282269e-07	0.99428004
2.300423192554445e-10	-3.1554578e-07	1.0005548e-06	0.99428004
2.3250968329099652e-10	-1.0502006e-06	2.106327e-07	0.9942799
2.350263936504538e-10	-6.8768384e-07	-8.5135383e-07	0.99428
2.3754311198319983e-10	4.453188e-07	-1.026892e-06	0.99428004
2.4001047425442544e-10	1.1391137e-06	-1.090365e-07	0.99428004
2.4252717701822517e-10	6.393878e-07	9.792216e-07	0.99428004
2.450438975216666e-10	-5.8263913e-07	1.0429578e-06	0.99428004
2.475112614150468e-10	-1.2194549e-06	-7.3744495e-09	0.99428004
2.500279751519191e-10	-5.7090665e-07	-1.107616e-06	0.99428
2.5254467874729954e-10	7.331487e-07	-1.0428262e-06	0.99428004
2.55012045338922e-10	1.2952199e-06	1.4077297e-07	0.99428004
2.575287630250037e-10	4.8762723e-07	1.2393025e-06	0.99428004
2.6004546411716177e-10	-8.9044005e-07	1.0285381e-06	0.99428004
2.6251284142056156e-10	-1.3589728e-06	-2.8944714e-07	0.99428004
2.650295532906864e-10	-3.819076e-07	-1.3682237e-06	0.99428
2.675462633263393e-10	1.0584886e-06	-9.950239e-07	0.9942799
2.700136262197642e-10	1.4130959e-06	4.5616235e-07	0.99428004
2.725303406160817e-10	2.578835e-07	1.4953013e-06	0.99428
2.7504704670842215e-10	-1.2304713e-06	9.422176e-07	0.99428004
2.7751441590201133e-10	-1.4492789e-06	-6.364413e-07	0.99428004
2.8003112898664304e-10	-1.1018876e-07	-1.6146093e-06	0.99428004
2.825478322659971e-10	1.4101371e-06	-8.6577353e-07	0.99428004
2.850152099139391e-10	1.4708405e-06	8.343663e-07	0.99428004
2.8753191281919786e-10	-5.7234285e-08	1.7275964e-06	0.99428004
2.900486236834638e-10	-1.590667e-06	7.669427e-07	0.99428004
2.925159965517471e-10	-1.4702603e-06	-1.0451965e-06	0.99428
2.9503269552453443e-10	2.4980946e-07	-1.8275466e-06	0.99428
2.9750007563135463e-10	1.7587814e-06	-6.780543e-07	0.99428
3.000167853382899e-10	1.4490053e-06	1.2699855e-06	0.99428
3.0253348953806406e-10	-4.6192366e-07	1.913933e-06	0.99428
3.050008516252935e-10	-1.9391716e-06	5.304336e-07	0.99428
3.075175698462068e-10	-1.3989932e-06	-1.504651e-06	0.99428004
3.100342758186119e-10	6.995439e-07	-1.9805664e-06	0.99428004
3.1250163070361594e-10	2.1181584e-06	-3.5133982e-07	0.99428004
3.150183454335799e-10	1.3235901e-06	1.750905e-06	0.99428004
3.1753505480859135e-10	-9.569088e-07	2.0279736e-06	0.99428
3.2000242188772734e-10	-2.285997e-06	1.4413098e-07	0.99428
3.2251912800562726e-10	-1.2140681e-06	-2.0015045e-06	0.99428
3.2503584163921273e-10	1.2370062e-06	-2.049175e-06	0.99428
3.275032092416705e-10	2.444383e-06	9.560447e-08	0.99428
3.300199245337881e-10	1.0735668e-06	2.2582276e-06	0.99428004
3.325366500616336e-10	-1.5348072e-06	2.042525e-06	0.99428004
3.3500400075662564e-10	-2.5837076e-06	-3.664838e-07	0.99428
3.375207176548375e-10	-8.931211e-07	-2.5136337e-06	0.99428004
3.4003742359142743e-10	1.8528592e-06	-2.0010436e-06	0.99428004
3.4250478747337185e-10	2.704678e-06	6.701531e-07	0.99428004
3.450215053000528e-10	6.7642463e-07	2.7659453e-06	0.99428004
3.475382214240429e-10	-2.1830099e-06	1.9238094e-06	0.99428
3.500055794405489e-10	-2.7977765e-06	-1.0045053e-06	0.99428
3.5252228626699475e-10	-4.1665638e-07	-3.0099604e-06	0.99428004
3.5503899710434103e-10	2.5283168e-06	-1.8050282e-06	0.99428004
3.575063682058464e-10	2.863023e-06	1.3712526e-06	0.99428004
3.6002307854252656e-10	1.1685539e-07	3.2413338e-06	0.99428004
3.6253979526816646e-10	-2.8791628e-06	1.6423952e-06	0.99428004
3.6500716429389924e-10	-2.889245e-06	-1.7661806e-06	0.99428004
3.67523870071947e-10	2.2989187e-07	-3.4540076e-06	0.99428004
3.70040576785934e-10	3.236984e-06	-1.4307749e-06	0.99428004
3.725079461973697e-10	2.877459e-06	2.189948e-06	0.99428004
3.7502465517470186e-10	-6.173385e-07	3.642945e-06	0.9942799
3.775413628960384e-10	-3.5908095e-06	1.1685869e-06	0.99428
3.800087302662067e-10	-2.8161671e-06	-2.6369582e-06	0.99428
3.82525443989421e-10	1.0524722e-06	-3.800475e-06	0.99428004
3.8504214063423103e-10	3.9407873e-06	-8.4970776e-07	0.99428004
3.87509514527634e-10	2.7048713e-06	3.10596e-06	0.99428004
3.9002622421832687e-10	-1.5287826e-06	3.9217584e-06	0.99428004
3.9254293249823335e-10	-4.2752586e-06	4.755203e-07	0.99428004
3.950102992756608e-10	-2.5335103e-06	-3.591225e-06	0.99428
3.9752700704219956e-10	2.0507719e-06	-3.9977745e-06	0.99428004
4.000437257207618e-10	4.592718e-06	-3.996688e-08	0.99428004
4.0251108852281154e-10	2.3014866e-06	4.0888685e-06	0.99428
4.0502779386455926e-10	-2.6101764e-06	4.022795e-06	0.99428004
4.0754450370938874e-10	-4.8793627e-06	-4.5616235e-07	0.99428004
4.100118842782023e-10	-1.9980685e-06	-4.5911215e-06	0.99428
4.1252858754272847e-10	3.2098196e-06	-3.9872066e-06	0.99428004
4.1504529394722165e-10	5.1331103e-06	1.0144477e-06	0.99428004
4.1751265690679486e-10	1.6247575e-06	5.0923863e-06	0.99428004
4.200293750952222e-10	-3.839586e-06	3.885874e-06	0.99428004
4.225460836430742e-10	-5.338706e-06	-1.6340989e-06	0.99428004
4.250134572720822e-10	-1.1706692e-06	-5.582919e-06	0.99428004
4.2753017235264663e-10	4.500241e-06	-3.708031e-06	0.99428
4.300468899472956e-10	5.492302e-06	2.3153136e-06	0.9942799
4.3251424303458363e-10	6.3802156e-07	6.0557395e-06	0.99428
4.3503095767420457e-10	-5.179674e-06	3.4493987e-06	0.99428004
4.3754767400001116e-10	-5.5789005e-06	-3.0538122e-06	0.99428004
4.400150393799718e-10	-1.8664517e-08	-6.49847e-06	0.99428004
4.4253174818347003e-10	5.875477e-06	-3.0999024e-06	0.99428004
4.4504845810427145e-10	5.5938285e-06	3.8489356e-06	0.99428
4.475158277218541e-10	-6.839308e-07	6.9024845e-06	0.99428
4.500325358607289e-10	-6.5733875e-06	2.6538798e-06	0.99428004
4.525492374839287e-10	-5.51959e-06	-4.6935734e-06	0.99428004
4.550166169939082e-10	1.477326e-06	-7.2536927e-06	0.99428004
4.5753331527662543e-10	7.2691987e-06	-2.1029691e-06	0.99428004
4.600006910542699e-10	5.4675697e-06	5.4659813e-06	0.99428
4.625173910059602e-10	-2.3552889e-06	7.542185e-06	0.99428
4.650341086142377e-10	-7.945126e-06	1.4444703e-06	0.99428004
4.675014702366783e-10	-5.210386e-06	-6.396413e-06	0.99428004
4.700181880385331e-10	3.3207862e-06	-7.751534e-06	0.99428004
4.725348977799049e-10	8.593843e-06	-6.6975804e-07	0.9942799
4.750022636282534e-10	4.8389556e-06	7.358252e-06	0.99428004
4.775189727103362e-10	-4.3665464e-06	7.8705125e-06	0.99428004
4.800356827526099e-10	-9.196605e-06	-2.2189191e-07	0.99428004
4.825030449183052e-10	-4.3372625e-06	-8.338e-06	0.99428004
4.850197517988813e-10	5.492722e-06	-7.881443e-06	0.99428004
4.875364716030377e-10	9.741796e-06	1.234891e-06	0.99428004
4.900038275968105e-10	3.7008624e-06	9.324859e-06	0.99428004
4.925205490866058e-10	-6.686607e-06	7.772636e-06	0.99428004
4.950372633579426e-10	-1.0208047e-05	-2.368581e-06	0.99428004
4.97504628646392e-10	-2.9154012e-06	-1.0301842e-05	0.99428004
5.000213424612099e-10	7.945475e-06	-7.525889e-06	0.99428004
5.025380553887447e-10	1.0583034e-05	3.6247393e-06	0.9942799
5.050054103714106e-10	1.9780973e-06	1.1256044e-05	0.99428
5.075221223360261e-10	-9.252485e-06	7.1287222e-06	0.99428004
5.10038829993333e-10	-1.0842305e-05	-4.996782e-06	0.99428
5.125061921413477e-10	-8.766541e-07	-1.21662615e-05	0.99428004
5.150229053235563e-10	1.0599964e-05	-6.5639183e-06	0.9942799
5.175396142149335e-10	1.0970904e-05	6.4835235e-06	0.99428004
5.200069753980124e-10	-3.8850425e-07	1.3013006e-05	0.99428004
5.225236893212453e-10	-1.1965748e-05	5.818704e-06	0.99428004
5.250404015220724e-10	-1.0943312e-05	-8.074495e-06	0.99428004
5.275077565170188e-10	1.8273408e-06	-1.3774286e-05	0.99428004
5.300244713566e-10	1.33387575e-05	-4.878659e-06	0.9942799
5.32541184821148e-10	1.0744124e-05	9.762849e-06	0.99428004
5.350085453674899e-10	-3.4341806e-06	1.4427978e-05	0.9942799
5.375252593507826e-10	-1.4691484e-05	3.7327882e-06	0.99428004
5.400419818453752e-10	-1.0346858e-05	-1.1531663e-05	0.99428004
5.425093377455024e-10	5.2144765e-06	-1.4946165e-05	0.9942799
5.450260438815872e-10	1.6005764e-05	-2.3675275e-06	0.99428004
5.475427652423982e-10	9.735057e-06	1.336856e-05	0.99428004
5.500101224261808e-10	-7.158409e-06	1.530376e-05	0.99428
5.525268338010226e-10	-1.7250231e-05	7.7655585e-07	0.99428004
5.550435482738265e-10	-8.883853e-06	-1.5250954e-05	0.99428004
5.575109060060167e-10	9.263716e-06	-1.5471594e-05	0.99428004
5.600276176751668e-10	1.8402452e-05	1.0496739e-06	0.99428004
5.62544328675298e-10	7.777937e-06	1.7158894e-05	0.99428
5.650116963756177e-10	-1.15153425e-05	1.5422607e-05	0.99428
5.675284030862299e-10	-1.9424855e-05	-3.1125444e-06	0.99428004
5.700451203130766e-10	-6.393985e-06	-1.90644e-05	0.9942799
5.725124785203786e-10	1.3903627e-05	-1.512493e-05	0.99428004
5.750291816436334e-10	2.0288879e-05	5.414426e-06	0.99428004
5.775458919171173e-10	4.72103e-06	2.0936852e-05	0.99428
5.800132616001464e-10	-1.6403113e-05	1.455071e-05	0.99428
5.825299681640819e-10	-2.095323e-05	-7.95071e-06	0.99428004
5.850466898979618e-10	-2.7374103e-06	-2.274234e-05	0.99428004
5.87514052228158e-10	1.8997824e-05	-1.3667356e-05	0.9942799
5.900307605817993e-10	2.1385886e-05	1.0718499e-05	0.99428004
5.92547472752274e-10	4.3845876e-07	2.4445773e-05	0.9942799
5.950148351799605e-10	-2.1654478e-05	1.2449914e-05	0.99428
5.975315581719778e-10	-2.1541928e-05	-1.3702188e-05	0.99428
6.000482645183496e-10	2.190014e-06	-2.6003197e-05	0.99428004
6.025156222880609e-10	2.4345632e-05	-1.086737e-05	0.99428004
6.050323307587172e-10	2.138654e-05	1.6888805e-05	0.99428004
6.075490396122386e-10	-5.147697e-06	2.7373166e-05	0.99428
6.100164189709173e-10	-2.7029402e-05	8.895627e-06	0.99428
6.125331275812114e-10	-2.0872712e-05	-2.0254189e-05	0.99428004
6.150004914023217e-10	7.826241e-06	-2.8666065e-05	0.99428004
6.175172023367942e-10	2.9666626e-05	-6.509532e-06	0.99428004
6.200339081370558e-10	1.9964733e-05	2.3772722e-05	0.99428
6.225012650191727e-10	-1.1421228e-05	2.9588331e-05	0.99428
6.250179816670479e-10	-3.220571e-05	3.6911752e-06	0.99428
6.275346941805841e-10	-1.861627e-05	-2.7409247e-05	0.99428004
6.30002068164379e-10	1.5341471e-05	-3.017651e-05	0.99428004
6.3251876728606e-10	3.4598397e-05	-4.215288e-07	0.9942799
6.350354820947787e-10	1.6791695e-05	3.1124917e-05	0.99428
6.375028465949551e-10	-1.9564488e-05	3.0375882e-05	0.99428
6.400195567947621e-10	-3.678093e-05	-3.3079673e-06	0.99428
6.425362695414648e-10	-1.4448312e-05	-3.4871402e-05	0.99428
6.450036415251211e-10	2.407328e-05	-3.0128576e-05	0.99428004
6.47520348995746e-10	3.8696373e-05	7.5066628e-06	0.9942799
6.500370564373485e-10	1.1556577e-05	3.8596023e-05	0.99428
6.525044319580031e-10	-2.8831048e-05	2.9377501e-05	0.99428
6.55021133215285e-10	-4.0271974e-05	-1.2171528e-05	0.99428
6.575378521650575e-10	-8.078931e-06	-4.223538e-05	0.9942799
6.600052204603587e-10	3.380338e-05	-2.8061622e-05	0.99428004
6.62521920213151e-10	4.143963e-05	1.729687e-05	0.9942799
6.650386364387433e-10	3.99305e-06	4.5722507e-05	0.99428
6.675059948455516e-10	-3.893767e-05	2.6125435e-05	0.99428
6.700227089956553e-10	-4.2121035e-05	-2.286527e-05	0.99428
6.725394174658726e-10	7.266137e-07	-4.898162e-05	0.99428004
6.750067961841989e-10	4.418363e-05	-2.3511982e-05	0.9942799
6.77523501793469e-10	4.2244188e-05	2.88524e-05	0.9942799
6.800402151011673e-10	-6.0879743e-06	5.1931795e-05	0.99428
6.8250757536479e-10	-4.9465092e-05	2.016846e-05	0.9942799
6.850242862814669e-10	-4.172029e-05	-3.522169e-05	0.9942799
6.875409994241271e-10	1.21044095e-05	-5.447894e-05	0.99428
6.900083599978999e-10	5.4713713e-05	-1.6043772e-05	0.9942799
6.925250774206626e-10	4.0476098e-05	4.192888e-05	0.99428
6.950417936179344e-10	-1.8765993e-05	5.6532266e-05	0.9942799
6.975091604516321e-10	-5.9835835e-05	1.109499e-05	0.99428
7.000258704318125e-10	-3.842406e-05	-4.891446e-05	0.99428
7.025425919655175e-10	2.6065789e-05	-5.798839e-05	0.99428
7.050099495309171e-10	6.4740176e-05	-5.2837927e-06	0.9942799
7.075266668225689e-10	3.548942e-05	5.6109617e-05	0.9942799
7.100433768048741e-10	-3.3970762e-05	5.874335e-05	0.99428
7.125107423317218e-10	-6.931383e-05	-1.4183963e-06	0.9942799
7.150274663046833e-10	-3.1588672e-05	-6.343067e-05	0.9942799
7.175441745224767e-10	4.2449996e-05	-5.8685207e-05	0.9942799
7.200115369925079e-10	7.344542e-05	9.032713e-06	0.9942799
7.225282450793881e-10	2.6655442e-05	7.078141e-05	0.9942799
7.250449559512466e-10	-5.1443913e-05	5.770388e-05	0.9942799
7.275123308863696e-10	-7.70035e-05	-1.7564753e-05	0.99428
7.300290399957171e-10	-2.0616651e-05	-7.804998e-05	0.9942799
7.325457606658556e-10	6.0890106e-05	-5.5684333e-05	0.9942799
7.350131140870085e-10	7.985737e-05	2.7011027e-05	0.99427986
7.375298261290525e-10	1.3418527e-05	8.5113556e-05	0.99427986
7.400465482936776e-10	-7.069777e-05	5.2515792e-05	0.99427986
7.425139044071283e-10	-8.185965e-05	-3.7349742e-05	0.99427986
7.450306179250174e-10	-5.0051976e-06	-9.183079e-05	0.99427986
7.475473291112475e-10	8.0770864e-05	-4.8085756e-05	0.99427986
7.500146932823105e-10	8.286625e-05	4.8546262e-05	0.99427986
7.525314187801467e-10	-4.6540636e-06	9.805186e-05	0.99427986
7.550481297317797e-10	-9.0982874e-05	4.2289405e-05	0.99427986
7.575154938932175e-10	-8.27164e-05	-6.0543043e-05	0.99427986
7.600322158266251e-10	1.5588364e-05	-0.0001036068	0.99427986
7.625489270465965e-10	0.00010119982	-3.5024685e-05	0.99427986
7.650162825067342e-10	8.12581e-05	7.3265415e-05	0.99427986
7.675330080546768e-10	-2.7798036e-05	0.00010831963	0.99427986
7.700003603099303e-10	-0.00011062464	2.8559662e-05	0.99427986
7.725170678929257e-10	-7.832603e-05	-8.6615444e-05	0.99427986
7.750337922372987e-10	4.1276406e-05	-0.00011199805	0.99427986
7.775011694112359e-10	0.0001205652	-1.8315235e-05	0.99427986
7.80017870698065e-10	7.3766474e-05	0.000100473844	0.99427986
7.825345903957301e-10	-5.598496e-05	0.00011444197	0.99427986
7.85001958781529e-10	-0.0001300061	6.359672e-06	0.99427986
7.875186700095746e-10	-6.741795e-05	-0.00011469316	0.99427986
7.900353884912991e-10	7.187165e-05	-0.00011543963	0.99427986
7.925027611045964e-10	0.0001387368	7.3612805e-06	0.9942798
7.950194648092282e-10	5.9137332e-05	0.00012910356	0.9942798
7.975361848383448e-10	-8.8844914e-05	0.00011477659	0.9942798
8.000035352611234e-10	-0.00014651546	-2.2874126e-05	0.9942798
8.025202544221705e-10	-4.8778555e-05	-0.00014350507	0.99427986
8.050369668552632e-10	0.00010679773	-0.0001122299	0.9942798
8.075043522172772e-10	0.00015309433	4.019437e-05	0.9942798
8.100210707725699e-10	3.62173e-05	0.00015767514	0.9942798
8.125377696429889e-10	-0.00012558307	0.000107578075	0.9942798
8.150051593746249e-10	-0.00015819824	-5.9297683e-05	0.9942798
8.175218635016985e-10	-2.1340575e-05	-0.0001713581	0.99427974
8.200385829801302e-10	0.000145028	-0.0001005975	0.9942796
8.225059578001221e-10	0.00016154662	8.013702e-05	0.9942796
8.2502265381957e-10	4.0615314e-06	0.00018427195	0.9942796
8.275393775024674e-10	-0.00016491425	9.1075635e-05	0.9942796
8.300067561351572e-10	-0.00016283608	-0.00010262626	0.9942796
8.325234561315644e-10	1.5691297e-05	-0.00019610794	0.9942796
8.350401764095267e-10	0.00018499927	-7.8805606e-05	0.99427956
8.375075481507234e-10	0.00016176746	0.00012664661	0.99427956
8.400242625303629e-10	-3.7946706e-05	0.00020653133	0.99427956
8.425409898665687e-10	-0.00020499143	6.359544e-05	0.99427956
8.45008350275553e-10	-0.0001580211	-0.00015203534	0.99427956
8.475250722780158e-10	6.27127e-05	-0.00021518116	0.99427956
8.500417930592299e-10	0.00022457035	-4.5274905e-05	0.9942795
8.525091684759082e-10	0.00015128728	0.00017858902	0.9942795
8.550258860322282e-10	-8.994634e-05	0.00022167785	0.9942795
8.575426004339837e-10	-0.00024336748	2.3697266e-05	0.99427944
8.600099677056208e-10	-0.00014125358	-0.00020605084	0.99427944
8.625266818188698e-10	0.00011957002	-0.0002256196	0.9942794
8.650433991205995e-10	0.0002609881	1.255105e-06	0.9942794
8.675107746190052e-10	0.0001276207	0.00023412336	0.9942793
8.700274926348891e-10	-0.0001514513	0.00022659088	0.9942793
8.725441981694005e-10	-0.00027698814	-2.9660956e-05	0.9942793
8.750115760637524e-10	-0.00011009689	-0.00026245278	0.9942793
8.775283079429203e-10	0.0001854134	-0.00022416153	0.99427927
8.800450169794297e-10	0.00029089802	6.15619e-05	0.9942792
8.825123923491098e-10	8.841634e-05	0.00029063283	0.9942791
8.850291012263404e-10	-0.00022120561	0.00021789865	0.9942791
8.875458232902719e-10	-0.00030220192	-9.6941745e-05	0.9942791
8.90013190248989e-10	-6.23366e-05	-0.00031819878	0.994279
8.925299034312175e-10	0.00025853372	-0.00020736095	0.99427897
8.950466293852544e-10	0.00031036502	0.00013573517	0.99427897
8.975139966387817e-10	3.1654545e-05	0.0003446391	0.99427897
9.000307220887223e-10	-0.00029702453	0.00019211893	0.9942789
9.025474237240493e-10	-0.00031482047	-0.00017780995	0.9942788
9.050147996878609e-10	3.7953598e-06	-0.00036938148	0.9942788
9.075315217361816e-10	0.0003362413	-0.00017175883	0.9942787
9.100482279820217e-10	0.0003149863	0.00022297102	0.99427855
9.1251560139946e-10	-4.4117904e-05	0.00039180633	0.99427855
9.150323153783237e-10	-0.00037566872	0.00014588583	0.9942785
9.175490507939093e-10	-0.00031025617	-0.0002709434	0.99427843
9.200164020668142e-10	8.9367626e-05	-0.00041123907	0.99427843
9.225331015107784e-10	0.0004147252	-0.00011413699	0.9942783
9.250004889035392e-10	0.00030669203	0.00031475176	0.9942783
9.275171991931294e-10	-0.00013951698	0.0004269623	0.9942782
9.300339172661523e-10	-0.00045274774	7.6183984e-05	0.9942781
9.325012889108025e-10	-0.00029149491	-0.00036749235	0.994278
9.350180012086878e-10	0.0001944738	-0.00043821847	0.9942779
9.375347147032899e-10	0.0004890069	-3.1766558e-05	0.9942779
9.400020633001218e-10	0.00026964917	0.00042184143	0.99427783
9.425187903817585e-10	-0.00025404376	0.00044421578	0.99427766
9.45035502651155e-10	-0.0005226929	-1.9322373e-05	0.99427754
9.475028657148558e-10	-0.00024055885	-0.0004771862	0.9942775
9.500195899432656e-10	0.00031795175	-0.00044413365	0.9942773
9.525362954939741e-10	0.00055293314	7.721733e-05	0.9942773
9.550036535790497e-10	0.00020368525	0.0005328006	0.9942771
9.575203781665712e-10	-0.00038579496	0.00043712964	0.99427694
9.60037107813832e-10	-0.00057877105	-0.00014196736	0.99427676
9.625044611918667e-10	-0.00015850397	-0.00058786036	0.9942767
9.650211844702533e-10	0.00045707636	-0.00042234428	0.9942764
9.675378809917236e-10	0.00059920165	0.00021350473	0.99427634
9.700052573220117e-10	0.00010457766	0.0006414308	0.9942762
9.725219745870217e-10	-0.000531154	0.00039893453	0.9942761
9.750386888471393e-10	-0.00061314553	-0.00029168185	0.99427587
9.775060516177068e-10	-4.151868e-05	-0.0006924749	0.9942757
9.800227569779668e-10	0.00060727616	-0.00036606213	0.99427545
9.825394826321383e-10	0.0006194943	0.0003761966	0.9942753
9.85006845606019e-10	-3.0957246e-05	0.00073985086	0.994275
9.875235500541179e-10	-0.0006845455	0.000322921	0.99427485
9.900402585456665e-10	-0.0006170937	-0.0004666136	0.9942746
9.9250762936082e-10	0.000113033566	-0.00078231393	0.9942743
9.9502434696258e-10	0.00076192844	-0.00026875627	0.9942741
9.975410670926838e-10	0.00060476345	0.0005623658	0.99427384
1.0000084397811268e-09	-0.00020477799	0.00081852527	0.99427354
1.0025251380153285e-09	-0.0008382354	0.00020288401	0.9942733
1.005041864051878e-09	-0.0005813256	-0.00066269893	0.9942729
1.0075092346125984e-09	0.00030610038	-0.0008470651	0.99427265
1.0100259414573942e-09	0.0009121473	-0.00012469644	0.9942723
1.01254267677739e-09	0.0005456087	0.0007667101	0.99427205
1.0150100300009239e-09	-0.00041676246	0.00086644123	0.99427164
1.0175267658833229e-09	-0.0009821936	3.3697284e-05	0.9942713
1.0200434571118222e-09	-0.0004964815	-0.00087329093	0.99427086
1.0225108475497941e-09	0.0005363628	-0.0008750858	0.99427056
1.025027569647744e-09	0.0010467706	7.046332e-05	0.9942701
1.027544272595688e-09	0.00043283042	0.0009811753	0.9942696
1.0300116449413116e-09	-0.00066427223	0.00087139546	0.9942692
1.0325283769942033e-09	-0.0011041246	-0.00018800906	0.99426866
1.035045081848405e-09	-0.0003536398	-0.0010888729	0.99426824
1.0375124623314421e-09	0.000799698	-0.0008537102	0.99426764
1.0400291741355457e-09	0.0011523848	0.0003189795	0.9942671
1.0425459067921202e-09	0.00025797455	0.0011947172	0.99426657
1.045013275159514e-09	-0.0009415842	0.0008203817	0.994266
1.0475300135269704e-09	-0.0011895461	-0.0004632452	0.9942653
1.0500467283924454e-09	-0.00014503504	-0.0012968237	0.99426466
1.052514102986016e-09	0.0010886644	-0.00076975866	0.99426395
1.0550308446327984e-09	0.0012135331	0.0006204052	0.9942631
1.057547547092458e-09	1.4175474e-05	0.0013931344	0.99426246
1.0600149437568128e-09	-0.0012394163	0.0007002491	0.99426174
1.0625316711162048e-09	-0.0012221844	-0.0007898437	0.99426085
1.0650484149873316e-09	0.00013510315	-0.0014814025	0.99426
1.0675157773111759e-09	0.0013920557	-0.00061034	0.99425924
1.070032525953082e-09	0.0012132728	0.00097069127	0.9942582
1.0725492647025729e-09	-0.00030300775	0.0015592003	0.9942573
1.0750166442617729e-09	-0.0015445452	0.0004985827	0.99425626
1.0775333744331678e-09	-0.0011845428	-0.0011617559	0.9942552
1.0800007556956766e-09	0.00045461548	-0.0016332931	0.9942541
1.0825175283900731e-09	0.0016945692	-0.0003636842	0.99425286
1.085034244173102e-09	0.0011337163	0.0013615779	0.99425167
1.087501652205805e-09	-0.0006584271	0.0016865267	0.9942504
1.0900183793837886e-09	-0.001839539	0.00020456393	0.99424905
1.0925351380791693e-09	-0.0010585607	-0.0015683699	0.9942477
1.0950025490172745e-09	0.0008804696	-0.0017214847	0.99424636
1.0975192910802963e-09	0.0019766612	-2.0241283e-05	0.9942449
1.1000360496604145e-09	0.0009569278	0.0017800177	0.9942432
1.1025034465782455e-09	-0.0011199105	0.0017351988	0.99424154
1.1050202052657026e-09	-0.002102845	-0.0001899022	0.99423975
1.1075369492034548e-09	-0.00082677236	-0.0019940427	0.9942379
1.110004354628124e-09	0.0013755858	-0.0017246074	0.9942362
1.1125211566608594e-09	0.0022147824	0.00042628855	0.9942342
1.11503793101196e-09	0.0006661033	0.0022076895	0.99423206
1.1175053234455452e-09	-0.001645992	0.0016866154	0.99423
1.120022107449437e-09	-0.0023089875	-0.0006889483	0.9942277
1.122538898446929e-09	-0.0004732884	-0.002417809	0.9942253
1.125006320595174e-09	0.0019291755	-0.0016181673	0.9942228
1.1275230966467004e-09	0.0023817692	0.0009776318	0.99422026
1.1300398764702212e-09	0.00024682467	0.0026209608	0.9942176
1.1325073191092666e-09	-0.0022227776	0.0015162631	0.9942148
1.1350240864223782e-09	-0.002429327	-0.0012916356	0.99421185
1.1375408947400357e-09	1.4532834e-05	-0.002813411	0.99420863
1.1400083277480718e-09	0.0025240886	-0.0013779949	0.9942055
1.142525133572245e-09	0.0024477285	0.001629946	0.99420214
1.1450419741626165e-09	-0.0003116942	0.0029911282	0.9941985
1.147509384918649e-09	-0.002829988	0.0012005488	0.9941948
1.150026190589301e-09	-0.0024330204	-0.0019910117	0.994191
1.1525430448486903e-09	0.00064511393	-0.0031498526	0.9941869
1.1550105118817376e-09	0.003136983	-0.0009813234	0.9941827
1.1575273102706378e-09	0.002381218	0.0023729657	0.9941783
1.1600441411886448e-09	-0.001014968	0.0032851344	0.99417347
1.162511652546971e-09	-0.003441165	0.00071807054	0.99416876
1.1650284742992938e-09	-0.0022884163	-0.002773417	0.9941637
1.1675452900408742e-09	0.0014210335	-0.003392368	0.99415827
1.1700128689751728e-09	0.003738378	-0.00040868012	0.99415267
1.1725297043572847e-09	0.0021508192	0.0031896136	0.9941468
1.1750465718367728e-09	-0.0018627354	0.0034668131	0.9941406
1.1775140917673558e-09	-0.0040241466	5.1578085e-05	0.99413425
1.1800310000826653e-09	-0.0019648154	-0.003618387	0.9941276
1.1825478602705565e-09	0.00233878	-0.0035038695	0.99412036
1.185015401144235e-09	0.004293854	0.00035467822	0.99411297
1.1875322986435965e-09	0.0017271735	0.0040561967	0.9941051
1.190049232664468e-09	-0.0028477637	0.0034988818	0.99409693
1.1925168080526965e-09	-0.004542733	-0.0008110423	0.99408853
1.1950337401156496e-09	-0.0014346186	-0.004499412	0.9940795
1.197501318248212e-09	0.0033121658	-0.0035171504	0.9940701
1.2000182831835625e-09	0.0047660535	0.0013179942	0.9940602
1.202535235793502e-09	0.0010846282	0.004944072	0.99404967
1.2050028714739408e-09	-0.0038829756	0.0034271774	0.9940389
1.207519858198086e-09	-0.004959204	-0.0018757547	0.9940275
1.2100368638854222e-09	-0.0006747724	-0.005386322	0.9940153
1.21250453136e-09	0.0044815787	-0.0032833794	0.99400276
1.2150215517587701e-09	0.0051178955	0.0024842108	0.99398935
1.2175385987083315e-09	0.00020327918	0.005822436	0.99397516
1.220006340602908e-09	-0.0051057967	0.0030823871	0.9939607
1.2225233668369874e-09	-0.0052383635	-0.0031429834	0.993945
1.2250404872782483e-09	0.0003313404	-0.0062491405	0.9939287
1.2275082417827035e-09	0.0057535386	-0.0028217062	0.9939117
1.2300253506664194e-09	0.005317571	0.0038517122	0.9938933
1.23254254275085e-09	-0.00093003636	0.0066638933	0.9938741
1.2350103812267886e-09	-0.0064234873	0.0024992018	0.9938542
1.2375275468100733e-09	-0.0053535327	-0.0046101473	0.9938327