# t (s)	mx ()	my ()	mz ()	E_total (J)	MaxAngle (rad)
0	1.3827093e-09	3.950598e-10	0.9795359	-2.0725771e-17	0.26627246
2.5190745282123138e-12	-9.547279e-10	1.8106906e-10	0.97340184	-2.0700792e-17	0.2462984
5.0465794961768e-12	-2.4691236e-09	-2.0082205e-09	0.9680337	-2.0651912e-17	0.23648071
7.520396791578789e-12	-2.0082205e-09	-5.135777e-09	0.964142	-2.0585038e-17	0.23236139
1.0042774539652383e-11	7.7365875e-10	-8.032882e-09	0.9621765	-2.0502623e-17	0.2299486
1.2514706283196485e-11	4.872404e-09	-1.0337398e-08	0.9624673	-2.041285e-17	0.2298547
1.5035306168379262e-11	1.0205711e-08	-1.0074024e-08	0.96491385	-2.0313809e-17	0.22975579
1.750594748015638e-11	1.5637783e-08	-6.650173e-09	0.9690289	-2.0206603e-17	0.22967884
2.002561711943046e-11	2.0674795e-08	3.950598e-10	0.9741304	-2.0078698e-17	0.23145838
2.254503478728768e-11	2.1530758e-08	1.2115167e-08	0.97818094	-1.9917813e-17	0.23417383
2.5014855318100878e-11	1.5967e-08	2.5283827e-08	0.97646505	-1.973297e-17	0.21902452
2.7533911920205095e-11	1.7448474e-09	3.4370203e-08	0.9609312	-1.9641397e-17	0.20679957
3.000343133341111e-11	-1.2395001e-08	3.3053336e-08	0.9304789	-1.9747945e-17	0.21955198
3.252217144985931e-11	-2.4296178e-08	2.79834e-08	0.8939345	-1.9917834e-17	0.23221846
3.504083185396953e-11	-2.9316729e-08	6.3868e-09	0.8642641	-2.0043382e-17	0.2310993
3.7510094607486377e-11	-2.9662406e-08	-1.2790061e-08	0.84336436	-2.0125073e-17	0.21266222
4.002852740471229e-11	-2.7654185e-08	-2.2398037e-08	0.82821155	-2.0171747e-17	0.20840569
4.2546581392847326e-11	-2.2979311e-08	-2.64402e-08	0.8181716	-2.018971e-17	0.21050547
4.501533310532896e-11	-1.5397044e-08	-2.8073936e-08	0.8124813	-2.0191351e-17	0.21302254
4.753350792338513e-11	-6.370339e-09	-2.6987522e-08	0.8100436	-2.0186393e-17	0.21510056
5.0002326497133287e-11	1.0288015e-09	-2.5069836e-08	0.8101825	-2.0180668e-17	0.21588746
5.252048216416353e-11	6.3868e-09	-2.0357925e-08	0.8122997	-2.0176532e-17	0.21610105
5.5038611521001135e-11	8.065804e-09	-1.5135727e-08	0.8157897	-2.0174747e-17	0.21584155
5.75073753771347e-11	7.999961e-09	-1.073863e-08	0.82004374	-2.017504e-17	0.2176746
6.002550469682266e-11	7.4402924e-09	-7.720127e-09	0.8249143	-2.0176879e-17	0.21821958
6.254366732896836e-11	5.695445e-09	-5.5802194e-09	0.8300721	-2.0179652e-17	0.21939757
6.501244133801221e-11	4.609031e-09	-4.255123e-09	0.83516085	-2.018276e-17	0.2205811
6.753057717309354e-11	2.436202e-09	-4.312736e-09	0.84016967	-2.0185862e-17	0.2209744
7.004872175913543e-11	1.5637783e-09	-4.329197e-09	0.8448681	-2.0188542e-17	0.22257075
7.251748125011363e-11	1.876534e-09	-5.0205515e-09	0.8491306	-2.0190514e-17	0.2223065
7.503560965338982e-11	2.0411421e-09	-5.0040905e-09	0.85313064	-2.0191676e-17	0.22372486
7.7504361308989e-11	1.876534e-09	-5.267464e-09	0.8567331	-2.019186e-17	0.22432666
8.002246845990686e-11	1.679004e-09	-5.432072e-09	0.860113	-2.019102e-17	0.22382852
8.254057908931925e-11	1.8106907e-09	-5.8600533e-09	0.86323595	-2.0189135e-17	0.22509356
8.500931691627464e-11	3.7859897e-09	-6.617251e-09	0.8660947	-2.0186279e-17	0.22551166
8.75274176585631e-11	4.7407176e-09	-7.242763e-09	0.8688533	-2.0182345e-17	0.22518487
9.004551386177878e-11	6.5184866e-09	-6.1234267e-09	0.8714991	-2.0177367e-17	0.2240615
9.251425085299772e-11	7.308606e-09	-5.79421e-09	0.8740229	-2.0171456e-17	0.22223864
9.503235894242491e-11	7.5719795e-09	-4.3456576e-09	0.8765613	-2.0164316e-17	0.22045085
9.750108231458361e-11	7.703666e-09	-3.555538e-09	0.87904716	-2.0156125e-17	0.21991867
1.0001919189944789e-10	8.658394e-09	-3.4238514e-09	0.8816139	-2.0146407e-17	0.21857941
1.025372968883562e-10	9.942338e-09	-2.5678886e-09	0.88424754	-2.01351e-17	0.21685807
1.0500602356396664e-10	1.1687185e-08	-1.316866e-09	0.886931	-2.0122189e-17	0.21680818
1.0752413737871709e-10	1.2543148e-08	9.218062e-10	0.8898133	-2.0106779e-17	0.21572463
1.1004224677116317e-10	1.2905287e-08	2.6995752e-09	0.8928892	-2.0088574e-17	0.21462531
1.1251099574362464e-10	1.3827092e-08	4.5431876e-09	0.8961465	-2.0067339e-17	0.21466589
1.1502911180851423e-10	1.4683056e-08	6.650173e-09	0.8997796	-2.0041283e-17	0.2129763
1.17547238965404e-10	1.5308567e-08	9.810651e-09	0.9038039	-2.0009509e-17	0.2138563
1.2001600492237996e-10	1.5736548e-08	1.3958779e-08	0.9082148	-1.9971131e-17	0.21273676
1.2253413753079859e-10	1.4156309e-08	1.9752989e-08	0.9132839	-1.9922291e-17	0.21355867
1.2500290298111964e-10	1.158842e-08	2.55472e-08	0.91889834	-1.9861808e-17	0.21404158
1.275210584891039e-10	7.3744495e-09	3.160478e-08	0.9253272	-1.9782893e-17	0.21427661
1.3003921611057348e-10	2.6337318e-10	3.7892818e-08	0.9323858	-1.968033e-17	0.21457773
1.3250800883420028e-10	-1.1226282e-08	4.5300187e-08	0.93955326	-1.9547785e-17	0.2144366
1.350261948427724e-10	-2.8641834e-08	4.9909218e-08	0.94609797	-1.9366053e-17	0.21290466
1.375443940220393e-10	-5.1818674e-08	4.7670547e-08	0.9494497	-1.9122197e-17	0.20899744
1.4001321674748754e-10	-7.818068e-08	3.63455e-08	0.94482785	-1.884231e-17	0.20655966
1.425314355022268e-10	-9.736578e-08	6.0575833e-09	0.92526895	-1.8650977e-17	0.21394783
1.4500028514402025e-10	-9.409007e-08	-3.7662367e-08	0.8911763	-1.8727266e-17	0.24065562
1.4751849516182464e-10	-7.95387e-08	-7.124245e-08	0.85433257	-1.9055917e-17	0.23488201
1.500367217399514e-10	-5.0435965e-08	-9.283905e-08	0.8223642	-1.9410006e-17	0.20711777
1.5250580023189324e-10	-6.0575833e-09	-9.646043e-08	0.79502976	-1.9654235e-17	0.20114276
1.5502434423802574e-10	3.4485428e-08	-8.2830866e-08	0.77171445	-1.9805237e-17	0.20391722
1.5754229720105453e-10	5.9997646e-08	-5.754704e-08	0.7535571	-1.9890102e-17	0.2087839
1.6001092263510002e-10	6.663342e-08	-3.0287918e-08	0.74082637	-1.9933339e-17	0.21155037
1.6252905329714954e-10	6.093797e-08	-6.716016e-09	0.73251987	-1.9953719e-17	0.21152908
1.6504717935230542e-10	4.8559432e-08	8.732467e-09	0.728386	-1.9961852e-17	0.21219745
1.6751593173939024e-10	3.692163e-08	1.6855884e-08	0.72782344	-1.9965147e-17	0.21200407
1.7003404155244002e-10	2.6222093e-08	2.0016362e-08	0.7300192	-1.9968008e-17	0.21170501
1.7250279635984974e-10	1.8543119e-08	2.0279735e-08	0.73430777	-1.997256e-17	0.21101603
1.7502096124923493e-10	1.3415572e-08	1.9357929e-08	0.74050677	-1.9980075e-17	0.21235248
1.7753913968358794e-10	9.646043e-09	1.8436124e-08	0.7481992	-1.9990843e-17	0.21155009
1.800079647606763e-10	6.617251e-09	1.738263e-08	0.7568014	-2.0004447e-17	0.2130062
1.8252614810944082e-10	2.8312617e-09	1.4880585e-08	0.76629233	-2.0020994e-17	0.21315502
1.850443243764335e-10	1.4156308e-09	1.3168659e-08	0.7762167	-2.0039605e-17	0.21301323
1.8751311870482507e-10	5.925897e-10	1.14896554e-08	0.7861333	-2.0059122e-17	0.21464323
1.90031300806497e-10	-1.6460824e-10	8.851808e-09	0.79620826	-2.0079482e-17	0.21584126
1.925000860191365e-10	0	6.5143713e-09	0.80581707	-2.0099046e-17	0.21662885
1.9501825539189718e-10	8.230412e-10	4.4773443e-09	0.8151198	-2.0117792e-17	0.21707681
1.9753640857440284e-10	2.1728288e-09	2.8641833e-09	0.8237306	-2.0134635e-17	0.2194433
2.000051906912919e-10	3.9505976e-09	1.2510226e-09	0.8313756	-2.0148854e-17	0.22078803
2.0252334214405993e-10	5.79421e-09	3.4567732e-10	0.8383037	-2.0160792e-17	0.22099587
2.050414564359052e-10	7.3744495e-09	3.292165e-10	0.8443654	-2.017013e-17	0.22298674
2.0751019338021e-10	9.18514e-09	1.9752988e-09	0.84953463	-2.017687e-17	0.22261287
2.1002831310135142e-10	9.843573e-09	4.4444226e-09	0.85412216	-2.018147e-17	0.22422643
2.125464041617299e-10	9.053453e-09	5.069934e-09	0.85813844	-2.0183978e-17	0.22439525
2.150151263084769e-10	8.592551e-09	4.938247e-09	0.8616361	-2.0184598e-17	0.22455831
2.17533212468522e-10	9.514356e-09	5.8600533e-09	0.8648601	-2.0183566e-17	0.22544047
2.2000192674686745e-10	9.646043e-09	7.901195e-09	0.86776996	-2.0181081e-17	0.22544314
2.22520007116923e-10	9.218062e-09	8.79008e-09	0.87055564	-2.0177185e-17	0.2245816
2.2503809295800162e-10	7.604901e-09	9.942338e-09	0.8732177	-2.0171994e-17	0.22292015
2.2750681431135412e-10	6.2551133e-09	1.0864144e-08	0.8757571	-2.016566e-17	0.22057019
2.300248910374922e-10	5.3003855e-09	1.1522577e-08	0.8783192	-2.015791e-17	0.2201437
2.325429936615826e-10	4.7736393e-09	1.2510227e-08	0.88089335	-2.0148747e-17	0.21902946
2.350117072480024e-10	4.411501e-09	1.3432032e-08	0.88346606	-2.0138223e-17	0.21709673
2.3752980443833725e-10	3.6872247e-09	1.4419682e-08	0.886179	-2.012569e-17	0.2169082
2.400479014631675e-10	2.99587e-09	1.6460824e-08	0.88902354	-2.0110978e-17	0.21612245
2.4251663341275343e-10	2.6337318e-10	1.797522e-08	0.8919851	-2.009398e-17	0.21436462
2.4503473511585174e-10	-1.8436124e-09	1.9094557e-08	0.8952353	-2.0073385e-17	0.21480016
2.4750345823178686e-10	-4.5431876e-09	2.0016362e-08	0.898707	-2.0049159e-17	0.21366861
2.500215708016839e-10	-8.230412e-09	2.1530758e-08	0.90261245	-2.001918e-17	0.21382175
2.5253968758646735e-10	-1.3168659e-08	2.1991662e-08	0.9069711	-1.998229e-17	0.2129213
2.550084364280826e-10	-1.9752989e-08	2.1859975e-08	0.9117769	-1.9937323e-17	0.21374674
2.5752655574436417e-10	-2.6864065e-08	2.074064e-08	0.91731423	-1.9879567e-17	0.21360761
2.6004469864801745e-10	-3.5028634e-08	1.797522e-08	0.923556	-1.9805773e-17	0.21339127
2.625134610774822e-10	-4.513558e-08	1.0666614e-08	0.9303275	-1.9712363e-17	0.21349764
2.650316215995291e-10	-5.6625236e-08	-1.0534927e-09	0.93763244	-1.9587364e-17	0.21388412
2.6750041037283954e-10	-6.6040826e-08	-2.0016362e-08	0.944418	-1.9423503e-17	0.21319841
2.7001859745213403e-10	-7.0353565e-08	-4.832898e-08	0.94905233	-1.9198134e-17	0.20987013
2.7253677578934457e-10	-6.4608734e-08	-8.296256e-08	0.94722956	-1.8916936e-17	0.20640759
2.7500560188476624e-10	-3.9851656e-08	-1.1562083e-07	0.9326407	-1.8683404e-17	0.21050833
2.775238032358868e-10	1.26748345e-08	-1.3129153e-07	0.90125346	-1.8676804e-17	0.23211744
2.8004200613416583e-10	6.347294e-08	-1.2299527e-07	0.86360097	-1.8956291e-17	0.246294
2.825108074079133e-10	1.0126699e-07	-9.902832e-08	0.8310287	-1.9318128e-17	0.21273845
2.8502918645495945e-10	1.2411462e-07	-4.6808413e-08	0.8020066	-1.959897e-17	0.20080057
2.87547783014101e-10	1.218101e-07	1.07406875e-08	0.7774003	-1.9772935e-17	0.20261659
2.900165079776457e-10	9.876083e-08	5.2872167e-08	0.75818205	-1.9871052e-17	0.20729248
2.925344223645917e-10	6.444413e-08	7.295437e-08	0.74378854	-1.9924511e-17	0.21078882
2.950031478665231e-10	3.275704e-08	7.387618e-08	0.7344372	-1.9949586e-17	0.21131405
2.9752127310548417e-10	7.473214e-09	6.439475e-08	0.72916293	-1.9960278e-17	0.21218584
3.0003934439870495e-10	-7.3744495e-09	5.0831026e-08	0.72767687	-1.9964431e-17	0.21206383
3.02508058777262e-10	-1.5209801e-08	3.713562e-08	0.72914934	-1.9967081e-17	0.21182157
3.0502616210023384e-10	-1.6938188e-08	2.7654185e-08	0.7329599	-1.9971076e-17	0.21112072
3.0754429974047465e-10	-1.695465e-08	1.9292086e-08	0.7387016	-1.9977765e-17	0.21214451
3.1001308240409464e-10	-1.5654244e-08	1.4419682e-08	0.74588	-1.9987445e-17	0.21207884
3.1253123994662265e-10	-1.48517785e-08	1.0666614e-08	0.7543929	-2.000049e-17	0.21286659
3.150000240840372e-10	-1.418923e-08	6.5843295e-09	0.7635345	-2.0016042e-17	0.2122996
3.1751817636479837e-10	-1.22797745e-08	3.7859897e-09	0.7733613	-2.0034137e-17	0.21358708
3.2003632197096637e-10	-9.316826e-09	1.0864144e-09	0.7834459	-2.0053763e-17	0.21462952
3.225051065747935e-10	-5.9258967e-09	9.876495e-11	0.79335743	-2.0073688e-17	0.21523958
3.250232495092873e-10	-3.1275567e-09	6.028777e-10	0.80325764	-2.009384e-17	0.21554105
3.275413867583469e-10	-3.292165e-10	2.623444e-09	0.81271386	-2.0112981e-17	0.21751142
3.3001014681522956e-10	3.292165e-10	2.7736489e-09	0.82135797	-2.0130062e-17	0.21926525
3.325282661654364e-10	3.2921648e-09	4.5843396e-09	0.8293902	-2.0145248e-17	0.22003014
3.350463878170569e-10	4.2798143e-09	6.666634e-09	0.8365526	-2.0157882e-17	0.22131462
3.375151201150371e-10	5.6625233e-09	9.1522185e-09	0.8427242	-2.0167725e-17	0.22260532
3.4003320169266744e-10	4.1810493e-09	9.728347e-09	0.84820676	-2.0175271e-17	0.2229436
3.4250191800614977e-10	3.456773e-09	9.020532e-09	0.85287917	-2.0180381e-17	0.22386855
3.450199910878326e-10	2.9300267e-09	9.18514e-09	0.85704565	-2.0183463e-17	0.22450611
3.475380632575219e-10	2.633732e-09	1.0337398e-08	0.86072695	-2.01846e-17	0.22415859
3.5000676627715376e-10	2.6666536e-09	1.1851793e-08	0.86397165	-2.0184021e-17	0.2253039
3.5252481963282994e-10	1.5802392e-09	1.3333268e-08	0.867003	-2.0181888e-17	0.22552764
3.550428899496568e-10	-1.3168659e-10	1.3596641e-08	0.8698311	-2.0178348e-17	0.22489107
3.575115562519196e-10	-2.0411421e-09	1.3036973e-08	0.8724688	-2.01736e-17	0.22347191
3.60029640056391e-10	-3.7859897e-09	1.218101e-08	0.8750745	-2.0167497e-17	0.22127579
3.6254770661022785e-10	-5.2016205e-09	1.0732458e-08	0.87764	-2.0160097e-17	0.22030388
3.650163981408664e-10	-4.6419526e-09	1.0534928e-08	0.8801566	-2.0151508e-17	0.21943152
3.67534465319375e-10	-5.267464e-09	1.0666614e-08	0.882763	-2.0141234e-17	0.21770577
3.700031758310622e-10	-6.7818595e-09	1.1259204e-08	0.88539463	-2.0129467e-17	0.21694227
3.725212402440551e-10	-8.098725e-09	1.1193361e-08	0.8881971	-2.0115416e-17	0.21645851
3.750393162026317e-10	-1.0534928e-08	1.1259204e-08	0.891164	-2.0098866e-17	0.21483344
3.7750803295481037e-10	-1.2707757e-08	9.744808e-09	0.89428216	-2.0079634e-17	0.21481806
3.800261110477875e-10	-1.537441e-08	9.283905e-09	0.8977358	-2.0056167e-17	0.21415576
3.825442040954424e-10	-1.7415552e-08	7.308606e-09	0.90153575	-2.0027733e-17	0.21361098
3.850129092471352e-10	-1.9720067e-08	5.267464e-09	0.90567756	-1.999362e-17	0.21348865
3.87531016803386e-10	-2.2617172e-08	2.633732e-09	0.91041905	-1.9950498e-17	0.21359693
3.9004911375276813e-10	-2.6600691e-08	-2.0411421e-09	0.91577786	-1.9896265e-17	0.21277685
3.9251785914187667e-10	-3.078174e-08	-8.691315e-09	0.9217048	-1.9828729e-17	0.2136852
3.95035978966164e-10	-3.410683e-08	-1.8238593e-08	0.92843956	-1.9740098e-17	0.21428025
3.9750474739025317e-10	-3.456773e-08	-3.173647e-08	0.9355417	-1.9626677e-17	0.21427464
4.0002289044750014e-10	-3.015623e-08	-5.017259e-08	0.9426947	-1.9472783e-17	0.2129904
4.025410565369235e-10	-1.758016e-08	-7.0584015e-08	0.94822764	-1.9264391e-17	0.2105568
4.050098604539585e-10	4.1810493e-09	-8.9600384e-08	0.94877225	-1.8999745e-17	0.20690897
4.075280521252444e-10	3.753891e-08	-9.995013e-08	0.9382056	-1.8731727e-17	0.20781082
4.100462337298032e-10	8.0822645e-08	-8.5332914e-08	0.910898	-1.8648262e-17	0.22351925
4.1251504391967006e-10	1.12065294e-07	-4.9250787e-08	0.8740199	-1.8855776e-17	0.247409
4.150332245985428e-10	1.2852611e-07	-1.4024622e-08	0.83940655	-1.922481e-17	0.21952078
4.175021550438712e-10	1.1917637e-07	3.2600664e-08	0.80986017	-1.9530915e-17	0.20261957
4.20020721584198e-10	8.493785e-08	7.388441e-08	0.78391945	-1.9732402e-17	0.20180994
4.2253897320878035e-10	4.2205553e-08	9.402423e-08	0.7628857	-1.9849891e-17	0.20569588
4.250074707421724e-10	5.0040905e-09	9.0929596e-08	0.74736387	-1.9912841e-17	0.20916946
4.2752550806390977e-10	-2.0946398e-08	7.302022e-08	0.73654056	-1.9944665e-17	0.21167864
4.300436070858185e-10	-3.318502e-08	5.0699338e-08	0.73016816	-1.9958356e-17	0.2120808
4.325123061507649e-10	-3.5802294e-08	3.015623e-08	0.72775656	-1.9963566e-17	0.21212924
4.3503036979355535e-10	-3.196692e-08	1.5670704e-08	0.7285075	-1.9966322e-17	0.2118998
4.3754842415588107e-10	-2.6436084e-08	5.9258967e-09	0.73174685	-1.9969791e-17	0.21140271
4.4001714806285547e-10	-2.2057504e-08	1.3827093e-09	0.7368866	-1.9975543e-17	0.21178442
4.4253528759181994e-10	-1.8699497e-08	-5.2674637e-10	0.7438055	-1.9984513e-17	0.21234202
4.4500405264798837e-10	-1.4946428e-08	-2.6995752e-09	0.75186694	-1.9996458e-17	0.21242459
4.4752218791618765e-10	-1.1753029e-08	-4.938247e-09	0.7609995	-2.0011588e-17	0.21257494
4.500403228486805e-10	-9.415592e-09	-6.1234267e-09	0.77071744	-2.002915e-17	0.2137296
4.525090918142873e-10	-6.2551133e-09	-6.551408e-09	0.78055805	-2.0048059e-17	0.21416783
4.5502724240535286e-10	-2.99587e-09	-5.8189014e-09	0.79068375	-2.0068275e-17	0.21425307
4.575453642296279e-10	-2.3045155e-10	-3.7962775e-09	0.8006629	-2.0088554e-17	0.21580814
4.6001411077337893e-10	2.2386721e-09	-1.0493776e-09	0.8100755	-2.010767e-17	0.21753988
4.6253222378499637e-10	3.0287917e-09	1.4485525e-09	0.81908727	-2.0125635e-17	0.21871789
4.6500096213711064e-10	2.7983402e-09	3.9670587e-09	0.82718647	-2.014117e-17	0.21896389
4.675190489004935e-10	2.0740638e-09	6.2551133e-09	0.8346005	-2.0154545e-17	0.22137055
4.700371335601008e-10	1.4156308e-09	7.3250668e-09	0.84113353	-2.0165307e-17	0.22201489
4.725058290846465e-10	-4.938247e-10	7.209841e-09	0.8467218	-2.017337e-17	0.22312012
4.750238873301697e-10	3.950598e-10	6.8806245e-09	0.8516759	-2.017921e-17	0.22343668
4.775419371242856e-10	1.6460824e-10	8.460864e-09	0.8559913	-2.0182843e-17	0.22450101
4.80010619021215e-10	-1.9423774e-09	9.218062e-09	0.85971975	-2.0184461e-17	0.2240218
4.825286738115567e-10	-3.917676e-09	8.559629e-09	0.8631229	-2.018433e-17	0.22509757
4.850467110157123e-10	-4.3785793e-09	6.814781e-09	0.8662206	-2.0182595e-17	0.22554709
4.875153887526068e-10	-4.6419526e-09	5.135777e-09	0.86904126	-2.0179493e-17	0.22515924
4.900334213943174e-10	-5.629602e-09	4.3456576e-09	0.8717643	-2.0175006e-17	0.22392975
4.92502086871136e-10	-4.0822843e-09	4.0822843e-09	0.87433726	-2.0169368e-17	0.22197753
4.95020134124566e-10	-4.6748743e-09	5.267464e-09	0.8769098	-2.0162342e-17	0.22041404
4.975381999420417e-10	-5.9258967e-09	5.2016205e-09	0.8794725	-2.0153973e-17	0.21974538
5.00006862426295e-10	-8.362099e-09	3.8189114e-09	0.8820132	-2.0144331e-17	0.21828839
5.02524904030241e-10	-9.481435e-09	2.2386721e-09	0.88467187	-2.0132837e-17	0.2169046
5.050429697604816e-10	-9.481435e-09	1.975299e-10	0.8874384	-2.011937e-17	0.2166893
5.075116545048908e-10	-9.218062e-09	-3.950598e-10	0.8902979	-2.0103874e-17	0.21542676
5.100297208236137e-10	-9.415592e-09	-5.925897e-10	0.89341354	-2.0085176e-17	0.21472883
5.125477746591444e-10	-1.0008181e-08	-2.1728288e-09	0.8967875	-2.0062837e-17	0.21450216
5.150164698000018e-10	-1.1851793e-08	-3.8189114e-09	0.90041167	-2.003643e-17	0.21321474
5.17534546410695e-10	-1.2905287e-08	-5.79421e-09	0.90450937	-2.0003575e-17	0.2137816
5.200032567420777e-10	-1.418923e-08	-9.481435e-09	0.9090073	-1.9963797e-17	0.21313304
5.225213443248592e-10	-1.4814741e-08	-1.3366189e-08	0.9141807	-1.9913066e-17	0.21326855
5.25039439890505e-10	-1.4090466e-08	-1.8304437e-08	0.9200302	-1.9848687e-17	0.21407385
5.275081681947111e-10	-1.198348e-08	-2.4625393e-08	0.9264522	-1.9767795e-17	0.21451251
5.300263031792134e-10	-7.3744495e-09	-3.0814665e-08	0.9335901	-1.9660545e-17	0.2147473
5.325444365292437e-10	7.2427625e-10	-3.7398994e-08	0.94086486	-1.9518273e-17	0.21422334
5.35013214367586e-10	1.3102816e-08	-4.292983e-08	0.9469653	-1.9330375e-17	0.21225744
5.375313774650464e-10	2.854307e-08	-4.569525e-08	0.94939446	-1.907614e-17	0.20829763
5.400001784116966e-10	4.7028575e-08	-4.2666457e-08	0.9427954	-1.8798642e-17	0.20593388
5.425183640316764e-10	6.594206e-08	-2.475708e-08	0.9203597	-1.86427e-17	0.2178873
5.450365380063696e-10	7.525889e-08	6.4526433e-09	0.8840892	-1.8774171e-17	0.24451455
5.47505339393976e-10	7.36128e-08	3.23949e-08	0.84875506	-1.9118566e-17	0.22903888
5.500235763589556e-10	5.7810414e-08	5.4172574e-08	0.81748974	-1.9458901e-17	0.20523606
5.525420940038452e-10	2.7390811e-08	6.6962635e-08	0.79036087	-1.968851e-17	0.2008672
5.550111639114243e-10	-4.8065605e-09	6.413137e-08	0.76835835	-1.982297e-17	0.2050362
5.575289940220085e-10	-2.6222093e-08	4.9184944e-08	0.7510718	-1.98996e-17	0.20910773
5.600469651618766e-10	-3.3645925e-08	3.015623e-08	0.7389586	-1.9938482e-17	0.21174897
5.625156743257753e-10	-3.1802312e-08	1.4617212e-08	0.7315621	-1.9955651e-17	0.21180059
5.650337153227957e-10	-2.6024564e-08	3.6872247e-09	0.7280686	-1.9962581e-17	0.21218047
5.675023747325786e-10	-1.9522538e-08	-2.897105e-09	0.728011	-1.996557e-17	0.2119681
5.700204121949266e-10	-1.3876475e-08	-5.9258967e-09	0.73060083	-1.9968607e-17	0.21161564
5.725384970213772e-10	-9.333287e-09	-6.7962627e-09	0.73531866	-1.9973704e-17	0.21135327
5.750072249595606e-10	-7.4238318e-09	-5.8600533e-09	0.7416786	-1.9981618e-17	0.21240537
5.775253539327876e-10	-4.7407176e-09	-7.1769195e-09	0.74957836	-1.9992919e-17	0.2117745
5.80043488263186e-10	-1.5473175e-09	-7.1769195e-09	0.75850224	-2.0007302e-17	0.21293598
5.825122287554905e-10	6.5843296e-11	-6.1234267e-09	0.76790005	-2.0023928e-17	0.21347852
5.850303458610804e-10	1.3004051e-09	-4.510266e-09	0.77787167	-2.0042811e-17	0.21333864
5.8754846130188e-10	2.6460776e-09	-4.032902e-09	0.78799593	-2.0062857e-17	0.21441336
5.900171923449684e-10	3.0287917e-09	-2.9629483e-09	0.79784286	-2.0082809e-17	0.21596925
5.92535306672592e-10	4.9053255e-09	-9.526702e-10	0.8075714	-2.0102606e-17	0.21714404
5.950040333256798e-10	5.069934e-09	1.6316792e-09	0.8165857	-2.0120702e-17	0.21770883
5.975221053114086e-10	3.1604783e-09	3.8024504e-09	0.8250684	-2.0137181e-17	0.21936415
6.000401638294782e-10	2.3703588e-09	4.559648e-09	0.83271515	-2.0151245e-17	0.22112963
6.025088650136077e-10	1.3004051e-09	3.8847547e-09	0.83935684	-2.0162498e-17	0.22114076
6.050269142083319e-10	-9.876495e-11	4.2633537e-09	0.8452816	-2.0171413e-17	0.22309884
6.075449614526082e-10	4.609031e-10	3.3250864e-09	0.8504257	-2.017788e-17	0.22284923
6.100136371020151e-10	1.9423774e-09	3.2921648e-09	0.854817	-2.018202e-17	0.22436872
6.12531673101968e-10	1.9423774e-09	4.4773443e-09	0.8587511	-2.01842e-17	0.22428083
6.15000326411465e-10	-6.255113e-10	5.1028555e-09	0.86218613	-2.0184539e-17	0.22478412
6.17518353792548e-10	-2.6995752e-09	3.9505976e-09	0.8653619	-2.0183247e-17	0.22549193
6.200363647214854e-10	-3.0452525e-09	2.3703588e-09	0.86829317	-2.0180466e-17	0.22534846
6.225049972356252e-10	-2.7654186e-09	9.218062e-10	0.87099904	-2.0176422e-17	0.2243615
6.250230247245942e-10	-1.2839443e-09	-1.975299e-10	0.87364584	-2.017102e-17	0.22257803
6.275410560246566e-10	1.218101e-09	-3.292165e-10	0.8762281	-2.0164339e-17	0.22045793
6.300097137220558e-10	1.6460824e-09	1.6460824e-09	0.8787392	-2.0156507e-17	0.22001812
6.325277459850629e-10	0	3.8189114e-09	0.8813189	-2.0147097e-17	0.21876569
6.350457714254118e-10	-1.6131608e-09	3.0287917e-09	0.8839557	-2.0136071e-17	0.21680321
6.375144282966161e-10	-2.7983402e-09	1.8436124e-09	0.88663465	-2.012344e-17	0.21685335
6.40032479646222e-10	-2.2715938e-09	7.2427625e-10	0.88950497	-2.010833e-17	0.21588412
6.425011471999029e-10	-1.9094557e-09	4.609031e-10	0.8924999	-2.0090854e-17	0.21452706
6.450192022003839e-10	-1.3497876e-09	6.58433e-10	0.89579356	-2.0069642e-17	0.21473135
6.475372513230748e-10	-6.255113e-10	1.1851794e-09	0.899393	-2.0044103e-17	0.21324459
6.500059325133532e-10	-1.6131608e-09	2.5020452e-09	0.9032924	-2.0013665e-17	0.21386838
6.525239934251362e-10	-2.8312617e-09	1.7119257e-09	0.9077343	-1.9975456e-17	0.2124667
6.550420669586085e-10	-3.3250864e-09	1.1851794e-09	0.9127412	-1.9927739e-17	0.21367058
6.575107821613144e-10	-3.917676e-09	3.950598e-10	0.9182865	-1.9868716e-17	0.21392594
6.600288835749869e-10	-4.2798143e-09	-1.1851794e-09	0.92464435	-1.979181e-17	0.21400595
6.625469852520914e-10	-4.411501e-09	-2.1069855e-09	0.9316495	-1.9692009e-17	0.21430099
6.650157235388966e-10	-4.3456576e-09	-3.6872247e-09	0.9388226	-1.9563273e-17	0.21434556
6.675338717195223e-10	-4.115206e-09	-6.18927e-09	0.94552326	-1.9387065e-17	0.21314093
6.700026476333145e-10	-3.2921648e-09	-8.427942e-09	0.94935024	-1.9155041e-17	0.20942907
6.725208176856614e-10	-9.2797897e-10	-1.198348e-08	0.94586563	-1.8870332e-17	0.20663345
6.75038997097161e-10	3.9505976e-09	-1.4353839e-08	0.9280572	-1.865998e-17	0.2133938
6.77507801498714e-10	9.77773e-09	-1.158842e-08	0.8950593	-1.8705469e-17	0.23622616
6.800259603931208e-10	1.3958779e-08	-8.823002e-09	0.85783154	-1.9017441e-17	0.24004363
6.825441660048067e-10	1.698757e-08	-5.2180815e-09	0.8254132	-1.937833e-17	0.20839214
6.850132187844823e-10	1.758016e-08	1.9403197e-09	0.79766077	-1.9633954e-17	0.20092426
6.875317626388669e-10	1.3530798e-08	8.691315e-09	0.7738463	-1.9793444e-17	0.20294274
6.900002956273244e-10	8.448518e-09	1.0995831e-08	0.7554709	-1.988242e-17	0.20830482
6.925182095720603e-10	5.053473e-09	1.0600771e-08	0.7419196	-1.9930166e-17	0.21133111
6.950362361307862e-10	2.0905246e-09	8.164569e-09	0.73316336	-1.9952367e-17	0.21130781
6.975049238203181e-10	1.0288015e-09	5.79421e-09	0.7286789	-1.9961231e-17	0.21220255
7.000229351781207e-10	1.5143958e-09	4.7407176e-09	0.7277425	-1.9964878e-17	0.21202843
7.025409544906813e-10	9.218062e-10	4.4032706e-09	0.7296869	-1.9967657e-17	0.2117521
7.050096334531933e-10	1.1687186e-09	2.7067768e-09	0.73377424	-1.9971967e-17	0.21089819
7.075277129170346e-10	1.0205711e-09	2.6995752e-09	0.73980045	-1.9979163e-17	0.21228829
7.100458263522682e-10	4.609031e-10	2.6995752e-09	0.7473591	-1.9989599e-17	0.21177138
7.125145568544646e-10	9.547279e-10	1.5802392e-09	0.75586975	-2.0002901e-17	0.21298477
7.150326614897395e-10	1.9752988e-09	1.316866e-09	0.7653012	-2.0019202e-17	0.21289057
7.175013921669213e-10	1.1522577e-09	1.6131608e-09	0.77499604	-2.0037258e-17	0.21331331
7.200194905570544e-10	1.4485525e-09	2.4032802e-09	0.78510034	-2.005706e-17	0.21468547
7.225375858952264e-10	1.1851794e-09	2.2386721e-09	0.79519	-2.007741e-17	0.21568118
7.250063068677098e-10	9.218062e-10	2.487642e-09	0.8048367	-2.0097053e-17	0.2162589
7.27524396165617e-10	2.3703588e-09	2.285997e-09	0.81420004	-2.0115956e-17	0.21729007
7.30042471736647e-10	2.7983402e-09	4.016441e-09	0.82288814	-2.0133019e-17	0.21942797
7.325111634366335e-10	3.0864045e-09	3.374469e-09	0.83061886	-2.014749e-17	0.22053315
7.350292267381361e-10	3.358008e-09	3.2098608e-09	0.8376368	-2.0159695e-17	0.22114892
7.375472870678874e-10	3.8847547e-09	3.0617133e-09	0.8437845	-2.0169287e-17	0.22287972
7.400159445805211e-10	3.5226164e-09	4.707796e-09	0.84902906	-2.0176274e-17	0.22275887
7.425339691652675e-10	2.3703588e-09	4.9053255e-09	0.85368174	-2.01811e-17	0.22411488
7.450026083573003e-10	9.218062e-10	4.7407176e-09	0.85767573	-2.0183776e-17	0.22445631
7.475206119690912e-10	5.2674637e-10	3.2921648e-09	0.86128867	-2.0184611e-17	0.2244022
7.500386284468144e-10	2.5020452e-09	2.9300267e-09	0.8645436	-2.0183741e-17	0.22540154
7.525072727269053e-10	3.358008e-09	2.9629483e-09	0.8674758	-2.0181405e-17	0.22548446
7.550252782600481e-10	3.3909298e-09	3.7201462e-09	0.87027717	-2.0177647e-17	0.2247071
7.57543282160346e-10	3.1934e-09	5.6625233e-09	0.87294936	-2.017258e-17	0.2231263
7.600119176168988e-10	1.8106907e-09	5.99174e-09	0.8754939	-2.0166379e-17	0.22085036
7.625299349516388e-10	1.2510226e-09	6.2551133e-09	0.87805706	-2.0158764e-17	0.22021303
7.650479483555228e-10	3.292165e-10	5.069934e-09	0.880628	-2.0149749e-17	0.21918194
7.675165828223172e-10	7.901196e-10	5.0040905e-09	0.88319373	-2.0139404e-17	0.21734121
7.700346096030128e-10	9.547279e-10	5.333307e-09	0.88589567	-2.012707e-17	0.2169298
7.725032619841451e-10	8.5596286e-10	5.9258967e-09	0.8886676	-2.0112907e-17	0.2162786
7.750212865557793e-10	-4.609031e-10	7.242763e-09	0.89166576	-2.0095896e-17	0.21444361
7.775393307306226e-10	-1.1522577e-09	7.835352e-09	0.89488953	-2.0075672e-17	0.21482113
7.800080082625106e-10	-1.8436124e-09	7.4402924e-09	0.8983284	-2.0051912e-17	0.21387428
7.825260484440993e-10	-2.99587e-09	8.9546885e-09	0.90219223	-2.0022545e-17	0.21375968
7.850441060328716e-10	-5.069934e-09	9.020532e-09	0.90650016	-1.9986455e-17	0.21315783
7.875127994060612e-10	-7.111076e-09	8.7571586e-09	0.91124624	-1.9942516e-17	0.2137237
7.900308795857284e-10	-1.0074024e-08	7.637823e-09	0.9167137	-1.988616e-17	0.2133302
7.925489598735471e-10	-1.2740678e-08	6.3868e-09	0.92288226	-1.981424e-17	0.21309076
7.950176946783661e-10	-1.7185101e-08	4.213971e-09	0.92959243	-1.9723336e-17	0.21374927
7.975358057714376e-10	-2.1728289e-08	-7.901196e-10	0.9368801	-1.9601914e-17	0.21339269
8.000045587875303e-10	-2.5876416e-08	-8.032882e-09	0.94376564	-1.9443064e-17	0.21302481
8.025227027818375e-10	-2.8213853e-08	-1.9226242e-08	0.94877887	-1.9224346e-17	0.21003686
8.050408472711369e-10	-2.7234433e-08	-3.4238514e-08	0.9479015	-1.8946713e-17	0.20620857
8.075096373169564e-10	-1.685177e-08	-4.9250787e-08	0.9349477	-1.8700257e-17	0.20975709
8.10027815669991e-10	4.7407176e-09	-5.609849e-08	0.9050644	-1.8663069e-17	0.22881563
8.125459868934132e-10	2.6600691e-08	-5.2016205e-08	0.8673075	-1.891889e-17	0.2483065
8.150147799323815e-10	4.0822844e-08	-4.3588262e-08	0.8342404	-1.9282758e-17	0.21451922
8.175331388245593e-10	5.15553e-08	-2.3205647e-08	0.80479985	-1.9575479e-17	0.20172071
8.200023358167229e-10	5.251003e-08	1.0946448e-09	0.7801508	-1.9756302e-17	0.20250222
8.225203957710208e-10	4.4950397e-08	2.03785e-08	0.759961	-1.986326e-17	0.20642155
8.250382551650299e-10	3.133318e-08	3.0617134e-08	0.74503225	-1.9920575e-17	0.2103097
8.275068733926486e-10	1.7827073e-08	3.232906e-08	0.73521656	-1.9947813e-17	0.21148194
8.30024905249773e-10	6.1563483e-09	2.8444305e-08	0.72952026	-1.9959594e-17	0.2121584
8.325429123892967e-10	-1.0205711e-09	2.2650093e-08	0.7276765	-1.9964135e-17	0.21208902
8.350115445866341e-10	-4.4444226e-09	1.7250944e-08	0.7288804	-1.9966775e-17	0.21185473
8.375295883557801e-10	-6.4197216e-09	1.2905287e-08	0.7324726	-1.9970557e-17	0.21124186
8.400476444371815e-10	-6.18927e-09	9.744808e-09	0.7380299	-1.9976936e-17	0.21202928
8.42516353790757e-10	-5.0040905e-09	6.7818595e-09	0.74506384	-1.9986278e-17	0.21220565
8.4503444734579e-10	-4.5267265e-09	4.938247e-09	0.7534711	-1.9999002e-17	0.21273902
8.475031742933273e-10	-3.7201462e-09	3.2263217e-09	0.76254505	-2.0014292e-17	0.21219519
8.500212679979948e-10	-2.6666536e-09	3.0287917e-09	0.7723315	-2.0032185e-17	0.21368605
8.525393726097382e-10	-2.7654186e-09	2.7654186e-09	0.78240013	-2.0051694e-17	0.21451503
8.550080808334446e-10	-1.679004e-09	2.2633633e-09	0.7923195	-2.0071584e-17	0.214905
8.57526167660836e-10	-1.1851794e-09	2.777764e-09	0.8022522	-2.0091794e-17	0.21550062
8.600442414424707e-10	-5.2674637e-10	1.938262e-09	0.8117642	-2.0111073e-17	0.21757577
8.625129365037102e-10	-1.3168659e-10	2.814801e-09	0.82048106	-2.0128358e-17	0.21909611
8.650310005920385e-10	1.876534e-09	2.0822943e-09	0.8285999	-2.0143795e-17	0.2196472
8.675490598820441e-10	3.917676e-09	2.1728288e-09	0.8358535	-2.0156697e-17	0.22137162