# t (s)	mx ()	my ()	mz ()	E_total (J)	MaxAngle (rad)
0	1.2715987e-09	3.950598e-10	0.979536	-2.0725773e-17	0.26627314
2.519155817673522e-12	1.497935e-09	-6.58433e-10	0.97340184	-2.0700792e-17	0.2462984
5.0464935572878205e-12	2.4691236e-09	-1.2674835e-09	0.9680342	-2.0651914e-17	0.23648147
7.520375528730125e-12	5.069934e-09	-1.4485525e-09	0.9641424	-2.0585046e-17	0.23236139
1.004284676900597e-11	8.065804e-09	1.2839443e-09	0.96217674	-2.0502624e-17	0.22994938
1.251485755210962e-11	9.3497485e-09	5.8600533e-09	0.9624679	-2.0412846e-17	0.2298555
1.5035467633888156e-11	7.506136e-09	1.0600771e-08	0.9649145	-2.0313806e-17	0.22975554
1.750611987938612e-11	2.7654186e-09	1.4683056e-08	0.96902955	-2.0206598e-17	0.22967805
2.002575032958521e-11	-4.7407176e-09	1.6460824e-08	0.9741309	-2.0078694e-17	0.23145942
2.2545141912495852e-11	-1.4913507e-08	1.4485526e-08	0.9781812	-1.991781e-17	0.23417434
2.501493213279676e-11	-2.5053374e-08	5.9258967e-09	0.9764649	-1.9732971e-17	0.2190237
2.7533857411127626e-11	-2.8575991e-08	-8.559629e-09	0.96093166	-1.9641409e-17	0.20679928
3.000325428597686e-11	-2.278178e-08	-2.0641874e-08	0.9304812	-1.9747946e-17	0.21955116
3.2521898762087074e-11	-1.4880585e-08	-2.7785871e-08	0.8939381	-1.9917831e-17	0.23221536
3.504043245440361e-11	4.2798143e-09	-2.7687106e-08	0.86426806	-2.0043372e-17	0.23110189
3.750958531063099e-11	2.0411422e-08	-2.5300286e-08	0.8433682	-2.0125064e-17	0.21266335
4.0028025329086886e-11	2.913566e-08	-2.1945365e-08	0.82821447	-2.0171744e-17	0.20840625
4.254601623749811e-11	3.17447e-08	-1.5539019e-08	0.8181738	-2.0189712e-17	0.21050519
4.501470603720906e-11	3.090108e-08	-8.4032505e-09	0.8124829	-2.0191356e-17	0.213022
4.7532889996090916e-11	2.885171e-08	-1.1028752e-09	0.8100446	-2.0186397e-17	0.21510056
5.000169734210374e-11	2.4580126e-08	5.7777494e-09	0.8101829	-2.018067e-17	0.21588746
5.251985938249377e-11	2.0522533e-08	9.086375e-09	0.8122999	-2.017653e-17	0.21610133
5.503797515236969e-11	1.6674814e-08	1.0045218e-08	0.81578946	-2.0174748e-17	0.21584181
5.750672551096775e-11	1.27736e-08	9.378555e-09	0.82004327	-2.0175043e-17	0.2176746
6.002485871198426e-11	1.0304476e-08	8.164569e-09	0.82491374	-2.0176877e-17	0.21821958
6.254300822278034e-11	8.79008e-09	7.2592234e-09	0.83007145	-2.0179652e-17	0.2193973
6.501178099298534e-11	8.098725e-09	5.629602e-09	0.83516014	-2.0182757e-17	0.22058083
6.75299183947864e-11	7.2756845e-09	4.7901e-09	0.84016895	-2.0185864e-17	0.2209744
7.004805055168266e-11	6.9629285e-09	3.3250864e-09	0.84486747	-2.0188542e-17	0.22257021
7.251680667655254e-11	7.028772e-09	3.0617133e-09	0.8491299	-2.0190514e-17	0.22230704
7.503493221608107e-11	7.1769195e-09	2.4032802e-09	0.8531301	-2.0191676e-17	0.22372432
7.750368355094338e-11	8.460864e-09	2.732497e-09	0.8567325	-2.0191861e-17	0.22432666
8.002180931421128e-11	8.658394e-09	3.8847547e-09	0.8601125	-2.019102e-17	0.22382773
8.253991607857294e-11	8.559629e-09	3.851833e-09	0.86323553	-2.0189136e-17	0.22509384
8.500866097211278e-11	8.98761e-09	3.9505976e-09	0.86609435	-2.018628e-17	0.22551166
8.752676942456381e-11	9.646043e-09	4.971169e-09	0.86885285	-2.0182347e-17	0.22518462
9.004488888505973e-11	9.448513e-09	5.464994e-09	0.8714987	-2.017737e-17	0.22406203
9.251363260195598e-11	9.316826e-09	7.242763e-09	0.8740225	-2.017146e-17	0.22223891
9.503174983803718e-11	9.283905e-09	9.283905e-09	0.87656087	-2.0164317e-17	0.22045085
9.750048605942835e-11	8.329177e-09	1.0600771e-08	0.8790469	-2.0156127e-17	0.21991867
1.000185989274613e-10	6.748938e-09	1.1456733e-08	0.88161355	-2.0146409e-17	0.21857995
1.0253672035520669e-10	6.0575833e-09	1.237854e-08	0.8842471	-2.01351e-17	0.21685752
1.050054553744804e-10	5.3003855e-09	1.3761249e-08	0.8869307	-2.0122192e-17	0.21680792
1.0752357903056346e-10	5.267464e-09	1.5275646e-08	0.88981295	-2.010678e-17	0.2157249
1.1004170460131082e-10	3.753068e-09	1.738263e-08	0.8928888	-2.0088577e-17	0.21462503
1.1251046695180657e-10	1.3497876e-09	1.9884675e-08	0.89614606	-2.006734e-17	0.21466646
1.1502859724808004e-10	-2.1069855e-09	2.1464915e-08	0.8997792	-2.0041284e-17	0.21297687
1.175467320829556e-10	-5.135777e-09	2.2650093e-08	0.9038034	-2.0009514e-17	0.21385658
1.2001549590780607e-10	-8.823002e-09	2.4032804e-08	0.90821433	-1.9971138e-17	0.21273734
1.2253364379958776e-10	-1.4880585e-08	2.5678887e-08	0.9132834	-1.9922296e-17	0.21355954
1.2500242414808594e-10	-2.3045153e-08	2.6469005e-08	0.91889757	-1.9861813e-17	0.21404131
1.2752057352480878e-10	-3.3843456e-08	2.436202e-08	0.9253265	-1.9782903e-17	0.21427661
1.3003873938915516e-10	-4.674874e-08	1.8699497e-08	0.9323852	-1.968034e-17	0.21457747
1.325075451995191e-10	-6.031246e-08	6.0575833e-09	0.93955266	-1.9547797e-17	0.21443632
1.3502572607654977e-10	-7.367865e-08	-1.3563719e-08	0.9460975	-1.9366068e-17	0.21290581
1.3754393270462832e-10	-8.322593e-08	-4.332489e-08	0.9494496	-1.912222e-17	0.20899831
1.4001276128410718e-10	-8.084528e-08	-8.046051e-08	0.9448287	-1.8842327e-17	0.20655994
1.4253099167363323e-10	-5.326723e-08	-1.1891299e-07	0.92527103	-1.8650982e-17	0.21394812
1.4504921143388094e-10	2.5020452e-09	-1.3603226e-07	0.89042544	-1.8731804e-17	0.24127826
1.4751804438029084e-10	4.872404e-08	-1.350446e-07	0.8543353	-1.9055887e-17	0.2348861
1.500362749891723e-10	9.165387e-08	-1.10452135e-07	0.82236636	-1.9409983e-17	0.20711777
1.5250536356300951e-10	1.1904468e-07	-5.8627283e-08	0.79503167	-1.9654222e-17	0.20114186
1.5502393156445487e-10	1.2194178e-07	-1.1522577e-09	0.7717156	-1.9805228e-17	0.20391694
1.5754188547425255e-10	1.0281431e-07	4.1612964e-08	0.7535581	-1.9890097e-17	0.20878331
1.6001051318827065e-10	7.131652e-08	6.355524e-08	0.740827	-1.993334e-17	0.2115498
1.6252864058775396e-10	3.9884576e-08	6.7423535e-08	0.7325202	-1.9953719e-17	0.21152851
1.650467701964585e-10	1.55884e-08	6.0575836e-08	0.7283861	-1.996185e-17	0.21219717
1.6751550872680591e-10	-2.6337318e-10	4.9119098e-08	0.72782344	-1.9965147e-17	0.21200465
1.7003362241446783e-10	-9.0369925e-09	3.713562e-08	0.73001903	-1.9968008e-17	0.21170558
1.7250238303415965e-10	-1.1720107e-08	2.8575991e-08	0.7343075	-1.9972562e-17	0.21101575
1.750205553747812e-10	-1.2423807e-08	2.1794131e-08	0.74050635	-1.9980076e-17	0.2123522
1.7753873819068087e-10	-1.29135165e-08	1.698757e-08	0.7481987	-1.9990843e-17	0.21155009
1.800075440343195e-10	-1.3201581e-08	1.297113e-08	0.75680083	-2.0004447e-17	0.2130062
1.825257262259438e-10	-1.3135738e-08	9.3497485e-09	0.76629174	-2.0020995e-17	0.21315502
1.8504389643940394e-10	-1.1720107e-08	6.288035e-09	0.776216	-2.0039605e-17	0.2130141
1.8751270160013252e-10	-9.300366e-09	4.4444226e-09	0.7861327	-2.0059118e-17	0.21464378
1.900308694382329e-10	-6.983505e-09	2.057603e-09	0.7962075	-2.007948e-17	0.21584098
1.9254904276113303e-10	-3.8847547e-09	1.2283891e-09	0.80600435	-2.0099428e-17	0.21669373
1.9501783056189507e-10	-1.2921747e-09	2.0802366e-09	0.81511927	-2.0117789e-17	0.21707708
1.9753599936260917e-10	1.3497876e-09	2.8230314e-09	0.82373005	-2.0134633e-17	0.2194433
2.0000476596601612e-10	3.2263217e-09	3.4650036e-09	0.83137506	-2.0148852e-17	0.22078776
2.025228993495057e-10	4.609031e-09	4.707796e-09	0.8383032	-2.0160792e-17	0.2209956
2.0504103095451776e-10	6.288035e-09	5.1028555e-09	0.8443652	-2.0170128e-17	0.22298647
2.0750977163934273e-10	7.242763e-09	7.5719795e-09	0.8495342	-2.0176872e-17	0.22261314
2.1002788908399387e-10	6.748938e-09	9.942338e-09	0.8541218	-2.0181472e-17	0.22422722
2.125459951088961e-10	5.7283667e-09	1.2148089e-08	0.8581383	-2.0183975e-17	0.22439525
2.1501471766219796e-10	3.0617133e-09	1.3234502e-08	0.86163604	-2.0184597e-17	0.22455858
2.1753281528690002e-10	9.547279e-10	1.2345618e-08	0.8648599	-2.0183564e-17	0.22544047
2.2000153654540988e-10	6.255113e-10	1.1654263e-08	0.86776984	-2.0181081e-17	0.22544366
2.2251962711068798e-10	9.218062e-10	1.2049323e-08	0.87055546	-2.0177187e-17	0.2245816
2.2503770678242457e-10	4.609031e-10	1.2839443e-08	0.87321746	-2.0171992e-17	0.22292043
2.2750639180081417e-10	-1.777769e-09	1.4485526e-08	0.875757	-2.016566e-17	0.22057156
2.3002446064945738e-10	-4.411501e-09	1.3563719e-08	0.8783191	-2.0157907e-17	0.22014426
2.3254252887062604e-10	-5.069934e-09	1.2312697e-08	0.8808931	-2.0148743e-17	0.21902946
2.3501123852055365e-10	-5.6625233e-09	1.1061674e-08	0.8834658	-2.0138227e-17	0.21709728
2.375293154477581e-10	-6.3868e-09	1.1127518e-08	0.88617873	-2.0125693e-17	0.2169082
2.400473894327291e-10	-7.4402924e-09	1.178595e-08	0.8890231	-2.011098e-17	0.21612245
2.425160999518147e-10	-1.0008181e-08	1.2115167e-08	0.8919847	-2.0093984e-17	0.21436517
2.4503418391407787e-10	-1.24773045e-08	1.1851793e-08	0.8952348	-2.0073389e-17	0.21480016
2.4750290545666805e-10	-1.6296216e-08	1.0666614e-08	0.8987065	-2.0049162e-17	0.21366918
2.5002100548754047e-10	-1.995052e-08	8.7571586e-09	0.9026119	-2.0019187e-17	0.21382232
2.5253910744206395e-10	-2.3835273e-08	5.530837e-09	0.90697056	-1.9982296e-17	0.2129216
2.5500783022690116e-10	-2.7654185e-08	1.6460824e-09	0.91177624	-1.993733e-17	0.21374674
2.5752593737109195e-10	-3.2032766e-08	-4.1481276e-09	0.91731346	-1.9879577e-17	0.21360706
2.600440593692909e-10	-3.5588304e-08	-1.2510227e-08	0.9235551	-1.9805784e-17	0.21339072
2.625128124884442e-10	-3.8189114e-08	-2.5020453e-08	0.93032634	-1.9712376e-17	0.2134968
2.650309560450508e-10	-3.713562e-08	-4.148128e-08	0.9376312	-1.9587387e-17	0.21388327
2.6754910001791605e-10	-3.0485445e-08	-6.110258e-08	0.94453883	-1.9419734e-17	0.21321557
2.700178886765046e-10	-1.616453e-08	-8.3489304e-08	0.94905186	-1.9198179e-17	0.20987041
2.725360666586833e-10	1.0596656e-08	-1.0515175e-07	0.9472309	-1.8916987e-17	0.20640789
2.7500487986784834e-10	5.1226085e-08	-1.11406855e-07	0.93264484	-1.8683431e-17	0.21050833
2.7752306252697103e-10	9.9160005e-08	-8.506954e-08	0.90126044	-1.867677e-17	0.23210967
2.800412477733104e-10	1.2747262e-07	-4.4641755e-08	0.86360794	-1.8956217e-17	0.24629915
2.82510055679478e-10	1.3787586e-07	-4.5761093e-09	0.8310347	-1.9318064e-17	0.21274242
2.850284317368171e-10	1.2055908e-07	4.6419526e-08	0.802012	-1.9598925e-17	0.20080237
2.875470059667086e-10	8.062512e-08	8.562921e-08	0.77740484	-1.9772909e-17	0.2026169
2.9001568329142997e-10	3.6641794e-08	1.0064148e-07	0.75818586	-1.9871032e-17	0.20729102
2.9253361297945987e-10	-1.078184e-09	9.4155915e-08	0.7437911	-1.9924501e-17	0.21078768
2.9500232105974085e-10	-2.4954609e-08	7.4435846e-08	0.7344391	-1.9949583e-17	0.21131434
2.9752041526572336e-10	-3.6608874e-08	4.8942145e-08	0.7291637	-1.9960273e-17	0.21218584
3.0003847486523947e-10	-3.771175e-08	2.7785871e-08	0.72767687	-1.996443e-17	0.21206439
3.025071500695569e-10	-3.2880497e-08	1.4460834e-08	0.7291486	-1.996708e-17	0.21182157
3.0502523476704066e-10	-2.7275586e-08	6.4526433e-09	0.7329587	-1.9971076e-17	0.21112157
3.075433628808267e-10	-2.1843514e-08	2.1069855e-09	0.7386998	-1.9977765e-17	0.21214451
3.1001212043919535e-10	-1.8230363e-08	-1.316866e-09	0.7458778	-1.998744e-17	0.21207969
3.125302719499747e-10	-1.5341488e-08	-3.6872247e-09	0.7543904	-2.0000483e-17	0.2128663
3.150484081479353e-10	-1.1753029e-08	-5.99174e-09	0.7637203	-2.0016371e-17	0.21237002
3.1751718276100404e-10	-7.736587e-09	-6.3209566e-09	0.77335846	-2.0034136e-17	0.21358708
3.200353236574391e-10	-5.0040905e-09	-5.5802194e-09	0.783443	-2.0053758e-17	0.21462867
3.2250408323814906e-10	-2.4032802e-09	-4.5267265e-09	0.79335445	-2.0073683e-17	0.2152393
3.250222195401174e-10	-6.6872097e-10	-3.1769392e-09	0.8032546	-2.0093835e-17	0.21553937
3.2754033981835336e-10	8.065804e-10	-2.0864095e-09	0.81271106	-2.0112973e-17	0.21751142
3.300090772159379e-10	2.2057505e-09	4.4444226e-10	0.8213553	-2.0130056e-17	0.21926443
3.3252717068965423e-10	2.534967e-09	2.3456674e-09	0.8293877	-2.0145243e-17	0.22002904
3.350452734340211e-10	3.1934e-09	5.0205515e-09	0.83655035	-2.015788e-17	0.22131489
3.3751398609278006e-10	2.3209763e-09	6.3209566e-09	0.8427222	-2.0167725e-17	0.22260477
3.4003205442574596e-10	1.4156308e-09	8.823002e-09	0.848205	-2.0175271e-17	0.22294387
3.425007534736425e-10	-9.218062e-10	8.395021e-09	0.8528776	-2.0180381e-17	0.22386828
3.45018803594895e-10	-2.436202e-09	7.111076e-09	0.8570443	-2.0183462e-17	0.22450557
3.4753685651715396e-10	-2.2057505e-09	7.111076e-09	0.8607257	-2.0184595e-17	0.22415806
3.500055391241432e-10	-3.094635e-09	7.4402924e-09	0.8639705	-2.0184021e-17	0.22530417
3.525235891026289e-10	-4.016441e-09	7.5719795e-09	0.8670019	-2.018189e-17	0.22552791
3.5504164289978427e-10	-5.069934e-09	7.2756845e-09	0.8698301	-2.017835e-17	0.22489133
3.575103193202945e-10	-6.7324772e-09	6.748938e-09	0.87246776	-2.0173603e-17	0.22347325
3.6002835735948323e-10	-6.946468e-09	5.3991505e-09	0.8750734	-2.0167499e-17	0.2212774
3.625464077141677e-10	-6.9793895e-09	4.5431876e-09	0.8776391	-2.0160102e-17	0.22030388
3.650150856848045e-10	-7.604901e-09	4.3456576e-09	0.88015544	-2.015151e-17	0.2194318
3.675331366553192e-10	-8.296255e-09	4.016441e-09	0.88276196	-2.0141237e-17	0.21770717
3.700018075777116e-10	-8.823002e-09	4.016441e-09	0.8853935	-2.0129472e-17	0.21694227
3.7251985956236254e-10	-9.77773e-09	2.897105e-09	0.8881959	-2.0115423e-17	0.2164588
3.7503793109768027e-10	-1.0304476e-08	2.1069855e-09	0.89116263	-2.0098871e-17	0.21483456
3.775066161623932e-10	-1.1061674e-08	9.876494e-10	0.8942806	-2.0079646e-17	0.21481834
3.8002467662143725e-10	-1.178595e-08	-7.2427625e-10	0.89773417	-2.0056178e-17	0.21415576
3.8254274941668314e-10	-1.1720107e-08	-2.7654186e-09	0.90153384	-2.0027748e-17	0.21361014
3.8501145820146315e-10	-1.2016402e-08	-4.609031e-09	0.9056754	-1.9993639e-17	0.21348949
3.875295369992367e-10	-1.2444383e-08	-7.111076e-09	0.91041666	-1.9950521e-17	0.21359664
3.9004763322045877e-10	-1.2049323e-08	-1.0469084e-08	0.9157751	-1.9896296e-17	0.21277516
3.9251635239804057e-10	-1.158842e-08	-1.4156309e-08	0.9217016	-1.9828768e-17	0.21368688
3.9503446551532067e-10	-8.7571586e-09	-1.9687146e-08	0.92843604	-1.9740148e-17	0.21428195
3.975032031419778e-10	-4.4444226e-09	-2.5909337e-08	0.93553793	-1.9626743e-17	0.21427661
4.000213419902312e-10	3.2921648e-09	-3.23949e-08	0.9426912	-1.9472874e-17	0.21299435
4.0253949403466126e-10	1.6526668e-08	-3.8650015e-08	0.9482257	-1.9264517e-17	0.21056081
4.0500826945314126e-10	3.318502e-08	-4.0427786e-08	0.9487742	-1.89999e-17	0.2069116
4.0752644386984807e-10	5.3398914e-08	-3.3514237e-08	0.93821555	-1.873184e-17	0.20781256
4.1004462772594655e-10	6.7621066e-08	-1.2115167e-08	0.9109166	-1.8648228e-17	0.22349289
4.125134289713635e-10	6.939884e-08	1.4748899e-08	0.87404007	-1.8855597e-17	0.24739708
4.150315947179632e-10	6.3999686e-08	3.496279e-08	0.83942413	-1.9224612e-17	0.21953775
4.1750052502723344e-10	4.4839286e-08	5.178987e-08	0.8098755	-1.9530778e-17	0.20262074
4.200190618145406e-10	1.734971e-08	6.0435916e-08	0.7839326	-1.9732316e-17	0.20180726
4.225372825213518e-10	-8.362099e-09	5.8238395e-08	0.76289624	-1.9849842e-17	0.20569588
4.2500578232380313e-10	-2.5691232e-08	4.510266e-08	0.74737144	-1.9912815e-17	0.20916514
4.2752380998663044e-10	-3.318502e-08	2.8197393e-08	0.73654544	-1.9944655e-17	0.21167919
4.3004189030206634e-10	-3.202042e-08	1.1456733e-08	0.7301707	-1.9958354e-17	0.21208026
4.32510549758534e-10	-2.5069836e-08	9.218062e-10	0.72775704	-1.9963564e-17	0.21212895
4.350285903332224e-10	-1.7728308e-08	-5.267464e-09	0.72850627	-1.9966319e-17	0.21190037
4.3754665794747437e-10	-1.1818872e-08	-7.242763e-09	0.7317443	-1.996979e-17	0.211403
4.400153670250393e-10	-7.3744495e-09	-6.847703e-09	0.73688287	-1.9975538e-17	0.21178357
4.42533482866809e-10	-5.135777e-09	-5.267464e-09	0.7438008	-1.9984505e-17	0.2123423
4.450022368557478e-10	-3.9505976e-09	-5.7283667e-09	0.7518615	-1.9996451e-17	0.21242374
4.4752035440281613e-10	-1.3703636e-09	-5.99174e-09	0.76099354	-2.0011577e-17	0.21257664
4.5003848004683717e-10	1.0205711e-09	-4.411501e-09	0.77071124	-2.0029141e-17	0.21372934
4.5250721152657325e-10	2.897105e-09	-2.156368e-09	0.7805515	-2.0048049e-17	0.21416613
4.550253460047377e-10	3.4073906e-09	-8.888845e-10	0.79067713	-2.0068259e-17	0.2142511
4.575434558834311e-10	2.9629483e-09	1.7283866e-10	0.8006565	-2.0088543e-17	0.21580899
4.6001218835437637e-10	2.633732e-09	9.2386376e-10	0.8100694	-2.0107659e-17	0.21753904
4.625302773323091e-10	2.5514277e-09	1.316866e-09	0.8190815	-2.0125622e-17	0.21871625
4.6504836486882784e-10	3.1934e-09	3.1604783e-09	0.82733494	-2.0141448e-17	0.21894221
4.6751706852958e-10	2.5678886e-09	3.9505976e-09	0.8345957	-2.0154539e-17	0.22136973
4.700351321180262e-10	1.0864144e-09	4.5761093e-09	0.84112924	-2.0165302e-17	0.222013
4.725038060169476e-10	6.58433e-10	5.9423577e-09	0.8467181	-2.0173363e-17	0.22312066
4.750218574142814e-10	-1.6131608e-09	4.609031e-09	0.85167253	-2.0179207e-17	0.22343561
4.775398921501234e-10	-2.3703588e-09	3.094635e-09	0.8559884	-2.0182841e-17	0.22450157
4.800085408713455e-10	-9.218062e-10	1.9094557e-09	0.85971725	-2.0184461e-17	0.2240226
4.8252658138343e-10	-1.0041102e-09	2.6995752e-09	0.8631205	-2.0184334e-17	0.22509705
4.850446119684259e-10	-1.3004051e-09	3.1604783e-09	0.8662183	-2.0182598e-17	0.22554709
4.87513259872791e-10	-1.5143958e-09	3.1604783e-09	0.86903924	-2.0179498e-17	0.22516006
4.900312745790109e-10	-2.0740638e-09	2.8312617e-09	0.87176234	-2.0175011e-17	0.22393082
4.925492981120233e-10	-3.094635e-09	2.3703588e-09	0.874386	-2.0169247e-17	0.22193259
4.950179485910759e-10	-2.6008102e-09	1.4485525e-09	0.8769078	-2.0162352e-17	0.22041376
4.975359730383083e-10	-9.876494e-10	1.2510226e-09	0.87947047	-2.0153978e-17	0.2197462
5.000046296260071e-10	-7.901196e-10	2.897105e-09	0.8820112	-2.014434e-17	0.21829031
5.025226627278763e-10	-1.3827093e-09	3.358008e-09	0.8846697	-2.0132847e-17	0.21690433
5.050407025439207e-10	-2.1728288e-09	3.753068e-09	0.8874362	-2.0119385e-17	0.21668985
5.075093652404162e-10	-2.8641833e-09	2.3703588e-09	0.89029545	-2.0103887e-17	0.21542843
5.100274126911978e-10	-2.6995752e-09	1.2510226e-09	0.89341086	-2.0085194e-17	0.21472828
5.125454686719627e-10	-2.3703588e-09	7.901196e-10	0.8967846	-2.0062855e-17	0.21450354
5.150141406085188e-10	-1.6460824e-09	6.58433e-10	0.9004085	-2.0036457e-17	0.2132139
5.175322029283974e-10	-1.8436124e-09	1.6460824e-09	0.9045057	-2.0003601e-17	0.21378271
5.200008888342835e-10	-2.3703588e-09	1.9752988e-09	0.90900326	-1.9963839e-17	0.21313106
5.225189628433486e-10	-3.0617133e-09	5.2674637e-10	0.91417605	-1.9913116e-17	0.21327078
5.250370465105148e-10	-3.7859897e-09	0	0.920025	-1.9848751e-17	0.21407497
5.275057626352165e-10	-4.0822843e-09	-1.777769e-09	0.9264463	-1.9767878e-17	0.21451221
5.300238793401349e-10	-4.0822843e-09	-3.1604783e-09	0.9335838	-1.9660649e-17	0.21474758
5.325420034364429e-10	-3.555538e-09	-4.609031e-09	0.9408587	-1.9518415e-17	0.21422559
5.350107542452812e-10	-2.1728288e-09	-6.5843295e-09	0.94696087	-1.933057e-17	0.21226197
5.375289043422404e-10	6.9135464e-10	-8.691315e-09	0.9493955	-1.907639e-17	0.20830166
5.400470825283419e-10	3.7859897e-09	-1.0271554e-08	0.9425367	-1.879388e-17	0.20618238
5.425158785326891e-10	8.065804e-09	-1.0008181e-08	0.9203872	-1.8642722e-17	0.21787764
5.450340528726846e-10	1.2510227e-08	-6.3209566e-09	0.8841232	-1.8773926e-17	0.24448034
5.475028332590334e-10	1.48476635e-08	-2.5020452e-09	0.8487849	-1.9118225e-17	0.2290759
5.500210764481161e-10	1.4683056e-08	2.2633633e-09	0.81751573	-1.9458643e-17	0.20524862
5.525395827136158e-10	1.2049323e-08	6.230422e-09	0.7903832	-1.9688351e-17	0.2008705
5.550086104249687e-10	8.8394625e-09	8.888845e-09	0.7683765	-1.982288e-17	0.20503034
5.57526454172167e-10	4.2468926e-09	1.0337398e-08	0.7510851	-1.989955e-17	0.2091063
5.600444153260407e-10	1.4567829e-09	8.9546885e-09	0.73896736	-1.9938459e-17	0.21174897
5.625130862786305e-10	3.6213813e-10	6.5843295e-09	0.7315672	-1.9955638e-17	0.21180059
5.650311181349683e-10	-7.078154e-10	4.5431876e-09	0.7280701	-1.9962576e-17	0.21218018
5.675491206957638e-10	-2.6337318e-10	2.633732e-09	0.7280371	-1.9965619e-17	0.21196412
5.700177850154827e-10	7.407371e-10	2.5020452e-09	0.73059726	-1.9968603e-17	0.21161622
5.725358483760109e-10	8.230412e-10	2.5020452e-09	0.73531324	-1.9973697e-17	0.21135156
5.750045697294283e-10	8.230412e-10	2.6995752e-09	0.7416718	-1.998161e-17	0.21240537
5.775226723491947e-10	7.2427625e-10	2.3374371e-09	0.7495702	-1.9992907e-17	0.21177223
5.800407589642978e-10	1.2839443e-09	1.6460824e-09	0.75849307	-2.0007285e-17	0.21293767
5.825095221278026e-10	1.5473175e-09	2.0082205e-09	0.7678905	-2.002391e-17	0.21347795
5.85027616758723e-10	2.2057505e-09	2.156368e-09	0.7778618	-2.0042788e-17	0.21333526
5.875457059311358e-10	2.4032802e-09	2.5020452e-09	0.78798586	-2.0062836e-17	0.21441531
5.900144384820153e-10	2.1728288e-09	2.8477225e-09	0.79783297	-2.008279e-17	0.2159698
5.925325123542671e-10	1.2016401e-09	2.1954625e-09	0.8075618	-2.0102585e-17	0.2171421
5.950012352565391e-10	1.9752988e-09	2.0411421e-09	0.8165767	-2.0120682e-17	0.2177044
5.975193003316101e-10	2.436202e-09	2.7201512e-09	0.8250602	-2.0137168e-17	0.21936527
6.000373682909602e-10	8.065804e-10	2.633732e-09	0.8327078	-2.0151231e-17	0.22112718
6.025060504390161e-10	5.7612887e-10	1.3827093e-09	0.8393503	-2.0162488e-17	0.22113751
6.050240928708361e-10	9.876494e-10	8.888845e-10	0.845276	-2.0171408e-17	0.22309858
6.075421146622209e-10	3.333317e-09	1.1851794e-09	0.8504208	-2.0177875e-17	0.22284734
6.10010779665754e-10	4.4444226e-09	2.8312617e-09	0.85481274	-2.0182016e-17	0.22436765
6.125287944215107e-10	3.5390773e-09	4.5761093e-09	0.85874724	-2.01842e-17	0.2242811
6.150468072883909e-10	2.0740638e-09	4.411501e-09	0.86224794	-2.0184532e-17	0.22480738
6.17515442617038e-10	1.8106906e-10	3.6872247e-09	0.86535877	-2.0183248e-17	0.22549114
6.200334482558701e-10	-3.2921648e-11	2.0740638e-09	0.8682902	-2.018047e-17	0.22535005
6.22502090529983e-10	1.3497876e-09	1.316866e-09	0.8709961	-2.0176427e-17	0.22436309
6.250201013646595e-10	3.1934e-09	2.8312617e-09	0.8736431	-2.0171024e-17	0.22258073
6.275381072663274e-10	3.1934e-09	4.4773443e-09	0.87622535	-2.0164347e-17	0.22045848
6.300067396966709e-10	2.3045155e-09	5.5966805e-09	0.87873644	-2.0156514e-17	0.22002003
6.325247558940052e-10	1.4485525e-09	5.530837e-09	0.8813161	-2.0147109e-17	0.21876816
6.350427724909215e-10	5.925897e-10	4.8065605e-09	0.88395286	-2.0136086e-17	0.21680321
6.375114173358739e-10	5.925897e-10	4.2798143e-09	0.8866317	-2.0123455e-17	0.21685363
6.400294452202462e-10	9.547279e-10	4.5431876e-09	0.8895018	-2.0108349e-17	0.21588635
6.425474795710174e-10	8.5596286e-10	5.530837e-09	0.89255846	-2.0090497e-17	0.2145433
6.450161317090658e-10	3.950598e-10	6.913546e-09	0.89578986	-2.0069668e-17	0.21473163
6.475341731361638e-10	-1.218101e-09	7.637823e-09	0.8993888	-2.0044135e-17	0.2132477
6.50002859709875e-10	-3.2263217e-09	8.164569e-09	0.9032877	-2.0013704e-17	0.21386895
6.525209120112651e-10	-6.18927e-09	7.5719795e-09	0.907729	-1.9975504e-17	0.21246982
6.550389723710898e-10	-7.868274e-09	6.2551133e-09	0.9127352	-1.9927797e-17	0.21367171
6.57507673928606e-10	-9.3497485e-09	5.9258967e-09	0.9182798	-1.9868794e-17	0.21392426
6.600257643854233e-10	-1.2510227e-08	5.5966805e-09	0.9246367	-1.979191e-17	0.21400285
6.625438614223863e-10	-1.6131608e-08	3.6872247e-09	0.9316412	-1.9692136e-17	0.2142965
6.650126026566245e-10	-2.0016362e-08	-1.4485525e-09	0.93881446	-1.9563445e-17	0.21434359
6.6753073162263e-10	-2.3934039e-08	-8.7242364e-09	0.94551665	-1.9387304e-17	0.21314262
6.700488796767483e-10	-2.5415513e-08	-1.856781e-08	0.9493724	-1.9150073e-17	0.20936829
6.725176544392734e-10	-2.3419638e-08	-3.1078038e-08	0.9458767	-1.8870658e-17	0.20663287
6.750358258918145e-10	-1.2740678e-08	-4.2666457e-08	0.92808807	-1.8660096e-17	0.21337833
6.775046201388685e-10	7.3744495e-09	-4.648537e-08	0.89510375	-1.8705234e-17	0.23621877
6.800227822832635e-10	2.475708e-08	-4.2798142e-08	0.857872	-1.9017005e-17	0.24009804
6.825409902591864e-10	3.713562e-08	-3.331671e-08	0.8254484	-1.9377958e-17	0.20842268
6.850100306975837e-10	4.4839286e-08	-1.5454656e-08	0.7976913	-1.9633713e-17	0.20091948
6.875285871252311e-10	4.414793e-08	4.3621182e-09	0.773871	-1.9793304e-17	0.20292942
6.900464677961277e-10	3.5501884e-08	1.8732418e-08	0.7551739	-1.988363e-17	0.20839301
6.925150006412618e-10	2.4460785e-08	2.5349669e-08	0.7419325	-1.9930128e-17	0.21132827
6.95033017834984e-10	1.3234502e-08	2.6139789e-08	0.73317105	-1.9952349e-17	0.21130553
6.975016751267266e-10	6.0987353e-09	2.2386722e-08	0.72868204	-1.9961225e-17	0.21220282
7.000196723972142e-10	1.4814742e-09	1.7646004e-08	0.72774166	-1.9964874e-17	0.21202871
7.025376948880485e-10	-1.4814742e-09	1.4864124e-08	0.7296832	-1.9967655e-17	0.21175295
7.050063679604635e-10	-2.9135658e-09	1.1851793e-08	0.73376805	-1.9971958e-17	0.21089962
7.075244260094869e-10	-2.9794092e-09	9.020532e-09	0.7397922	-1.9979151e-17	0.21228771
7.100425330058782e-10	-3.2592433e-09	7.506136e-09	0.7473492	-1.9989584e-17	0.21177365
7.125112614507999e-10	-4.3456576e-09	6.18927e-09	0.75585884	-2.0002883e-17	0.2129842
7.150293467678861e-10	-3.473234e-09	4.3785793e-09	0.76528937	-2.0019182e-17	0.21288688
7.175474523246813e-10	-2.9629483e-09	3.7201462e-09	0.77518076	-2.0037612e-17	0.21327332
7.200161551632464e-10	-1.5802392e-09	2.3868196e-09	0.78508794	-2.0057034e-17	0.21468575
7.22534257347705e-10	-8.230412e-10	2.576119e-09	0.7951777	-2.0077386e-17	0.21567868
7.250029646020957e-10	9.218062e-10	2.7654186e-09	0.80482495	-2.0097028e-17	0.21625417
7.275210346428632e-10	1.4485525e-09	2.8600682e-09	0.81418884	-2.0115932e-17	0.21729285
7.300391063465664e-10	2.4855844e-09	3.613151e-09	0.8228779	-2.0132999e-17	0.21942687
7.325077785221358e-10	2.0905246e-09	4.4279616e-09	0.83060956	-2.0147471e-17	0.22052988
7.350258191405641e-10	2.1645985e-09	4.2798143e-09	0.83762854	-2.015968e-17	0.22115083
7.375438485193837e-10	1.7448474e-09	4.230432e-09	0.84377736	-2.0169277e-17	0.22287783
7.400124990816609e-10	3.358008e-09	4.1810493e-09	0.84902275	-2.0176267e-17	0.22276103
7.425305163887912e-10	5.2016205e-09	5.168699e-09	0.85367614	-2.0181096e-17	0.224113
7.450485280961467e-10	5.3991505e-09	7.045233e-09	0.85774577	-2.0183809e-17	0.22444908
7.475171429782925e-10	3.654303e-09	8.9546885e-09	0.86128426	-2.0184611e-17	0.22439954
7.500351476012307e-10	8.230412e-10	9.613121e-09	0.8645396	-2.0183743e-17	0.225401
7.525037680222984e-10	-1.975299e-10	7.934117e-09	0.8674721	-2.0181409e-17	0.225485
7.550217689425443e-10	-9.218062e-10	7.111076e-09	0.8702736	-2.017765e-17	0.22470896
7.575397664678287e-10	-6.5843296e-11	6.5184866e-09	0.87294585	-2.0172588e-17	0.22312929
7.600083886248508e-10	1.0534927e-09	6.9793895e-09	0.87549055	-2.016639e-17	0.22085363
7.625263830491996e-10	4.2798143e-10	8.9546885e-09	0.8780536	-2.0158777e-17	0.22021385
7.650443989323151e-10	-3.292165e-10	9.810651e-09	0.8806246	-2.0149764e-17	0.21918413
7.675130272877942e-10	-2.7983402e-09	1.0600771e-08	0.8831902	-2.0139416e-17	0.21734343
7.700310438793178e-10	-4.016441e-09	9.020532e-09	0.885892	-2.0127084e-17	0.21693036
7.725490627585585e-10	-4.609031e-09	8.691315e-09	0.88872063	-2.011262e-17	0.2162561
7.750177035959163e-10	-5.9588183e-09	9.3497485e-09	0.89166176	-2.009592e-17	0.21444725
7.775357238951441e-10	-6.9793895e-09	9.1522185e-09	0.89488494	-2.0075703e-17	0.21482113
7.800043780411334e-10	-8.855923e-09	9.415592e-09	0.8983235	-2.0051948e-17	0.2138768
7.825224158492678e-10	-1.1555499e-08	9.5472785e-09	0.9021868	-2.002259e-17	0.21375856
7.850404650847539e-10	-1.4748899e-08	8.164569e-09	0.90649396	-1.9986507e-17	0.21316122
7.875091434179445e-10	-1.813983e-08	5.9258967e-09	0.9112393	-1.9942583e-17	0.21372314
7.900272140800177e-10	-2.1958739e-08	2.5678886e-09	0.91670585	-1.9886246e-17	0.2133257
7.925452859827345e-10	-2.5810573e-08	-2.1069855e-09	0.9228733	-1.981435e-17	0.2130964
7.950140046209605e-10	-2.9794093e-08	-9.218062e-09	0.9295827	-1.9723481e-17	0.21375489
7.975321095984542e-10	-3.2427824e-08	-1.9226242e-08	0.93687004	-1.9602106e-17	0.21340086
8.000008573939075e-10	-3.1868154e-08	-3.318502e-08	0.9437568	-1.944332e-17	0.21302143
8.02518988276416e-10	-2.5892877e-08	-5.096271e-08	0.9487748	-1.9224692e-17	0.21003829
8.05037137591906e-10	-1.2345618e-08	-6.979389e-08	0.94790965	-1.8947111e-17	0.20620596
8.075059273843913e-10	1.2691295e-08	-8.2172434e-08	0.9349772	-1.8700499e-17	0.20973933
8.100240899792959e-10	4.8625274e-08	-7.571979e-08	0.9051148	-1.8662907e-17	0.2287954
8.125422556221661e-10	7.7168345e-08	-5.3859818e-08	0.8673577	-1.8918397e-17	0.24832347
8.15011049885439e-10	9.218061e-08	-2.9366111e-08	0.8342839	-1.928228e-17	0.21453938
8.175294112721478e-10	9.023824e-08	8.427942e-09	0.8048376	-1.9575156e-17	0.20173141
8.200479882293909e-10	7.186796e-08	4.2707608e-08	0.77973646	-1.9758848e-17	0.20254016
8.225166392874477e-10	4.497097e-08	6.126719e-08	0.75998545	-1.9863151e-17	0.20640877
8.25034507118787e-10	1.73744e-08	6.393384e-08	0.7450493	-1.9920521e-17	0.21030343
8.275031223914824e-10	-2.4032802e-09	5.5703428e-08	0.7352274	-1.994779e-17	0.21148364
8.300211476261414e-10	-1.45349075e-08	4.1217906e-08	0.7295254	-1.9959579e-17	0.21215782
8.325391591082926e-10	-1.9242703e-08	2.8312618e-08	0.7276768	-1.9964133e-17	0.21208875
8.350077612503543e-10	-1.8864105e-08	1.7250944e-08	0.7288769	-1.9966773e-17	0.21185559
8.375257806569531e-10	-1.659251e-08	1.0139868e-08	0.73246604	-1.9970549e-17	0.21124357
8.400438439078237e-10	-1.3481415e-08	6.18927e-09	0.73802084	-1.9976921e-17	0.21202815
8.425125501005642e-10	-1.2049323e-08	4.0822843e-09	0.74505275	-1.9986264e-17	0.21220763
8.450306541440401e-10	-1.0304476e-08	2.1069855e-09	0.7534586	-1.999898e-17	0.21273762
8.475487437631624e-10	-8.345638e-09	1.6460824e-10	0.76271915	-2.0014598e-17	0.21214537
8.50017442094319e-10	-6.1234267e-09	-1.1193361e-09	0.77231735	-2.003216e-17	0.21368745
8.525355390919138e-10	-4.353888e-09	-1.4814742e-09	0.7823858	-2.0051665e-17	0.21451306
8.550042404929938e-10	-2.2222113e-09	-1.1193361e-09	0.7923052	-2.0071552e-17	0.21489967
8.57522310936658e-10	-5.5966803e-10	-6.028777e-10	0.8022382	-2.0091765e-17	0.21550399
8.600403775058887e-10	4.609031e-10	1.1790066e-09	0.811751	-2.0111047e-17	0.21757577
8.625090434680249e-10	1.679004e-09	2.3909348e-09	0.8204689	-2.0128335e-17	0.21909365
8.650271060029793e-10	1.777769e-09	3.736607e-09	0.8285888	-2.0143774e-17	0.21964173