# t (s)	mx ()	my ()	mz ()
0	1.1892946e-09	5.5966803e-10	0.9795359
2.515981890486182e-12	1.497935e-09	6.58433e-10	0.97141826
5.043902173534589e-12	2.255133e-09	6.58433e-10	0.9637266
7.518488905607644e-12	3.7201462e-09	2.0082205e-09	0.95768857
1.004138336043964e-11	4.4773443e-09	5.333307e-09	0.9539678
1.2513549559398057e-11	2.9300267e-09	9.613121e-09	0.95294666
1.5034236278481935e-11	-5.925897e-10	1.3432032e-08	0.95424086
1.750495057028423e-11	-7.835352e-09	1.580239e-08	0.9569374
2.002470439069312e-11	-1.797522e-08	1.5539019e-08	0.95913446
2.2544221643189308e-11	-3.013977e-08	9.876494e-09	0.95608824
2.5014160972341598e-11	-3.8682938e-08	-3.555538e-09	0.93970704
2.7533212984198425e-11	-3.8222034e-08	-2.2123348e-08	0.90426975
3.000268527963848e-11	-2.3703587e-08	-3.5522458e-08	0.8642733
3.252141550077117e-11	-5.2016205e-09	-4.1283748e-08	0.83065975
3.5040140080617746e-11	1.4090466e-08	-4.154712e-08	0.80218256
3.750953776066341e-11	2.9283806e-08	-3.39093e-08	0.77888805
4.00278907652965e-11	3.8082117e-08	-2.1596602e-08	0.76024806
4.2545938395395485e-11	3.8419564e-08	-7.637823e-09	0.74685067
4.501476746295754e-11	3.4040983e-08	4.312736e-09	0.73837394
4.753301389553833e-11	2.7061596e-08	1.21604335e-08	0.73383963
5.0001841873987705e-11	1.9637763e-08	1.5351777e-08	0.7329324
5.25200129402925e-11	1.3152198e-08	1.5539019e-08	0.7348403
5.503818180800608e-11	8.592551e-09	1.4617212e-08	0.7389274
5.7506980635559666e-11	5.79421e-09	1.3695406e-08	0.74467796
6.002520177629016e-11	4.032902e-09	1.158842e-08	0.75199896
6.254341939998198e-11	3.0452525e-09	1.0436163e-08	0.76039153
6.501226868234547e-11	1.9094557e-09	9.5802e-09	0.769278
6.753048592733898e-11	1.3497876e-09	9.415592e-09	0.77869695
7.004871824152051e-11	1.3168659e-10	8.098725e-09	0.7882143
7.251756297301995e-11	2.3045155e-10	5.769519e-09	0.7974041
7.503577270458e-11	7.2427625e-10	4.1481276e-09	0.8063929
7.750461139827645e-11	1.5802392e-09	2.633732e-09	0.8146098
8.002281251585914e-11	2.3703588e-09	1.8189211e-09	0.8222071
8.254100173755149e-11	3.917676e-09	1.0534927e-09	0.8289076
8.500980996497541e-11	5.695445e-09	1.975299e-10	0.83458006
8.75279542785222e-11	6.8806245e-09	7.901196e-10	0.8394925
9.004609215743707e-11	7.242763e-09	1.5802392e-09	0.8436123
9.251485807219353e-11	6.913546e-09	2.5020452e-09	0.8469929
9.503296265283778e-11	6.847703e-09	3.4238514e-09	0.84988856
9.750171184432008e-11	5.8600533e-09	4.0822843e-09	0.85229284
1.0001982231920106e-10	5.152238e-09	3.9505976e-09	0.8543967
1.0253793076562847e-10	4.2798143e-09	3.2263217e-09	0.85622615
1.0500665660826988e-10	4.510266e-09	2.9629483e-09	0.85781205
1.0752476887482174e-10	5.9588183e-09	3.9505976e-09	0.85926396
1.1004286200838102e-10	5.530837e-09	5.333307e-09	0.86058384
1.1251157682610167e-10	4.460883e-09	5.069934e-09	0.8617762
1.1502967893405282e-10	3.7859897e-09	5.2016205e-09	0.86290926
1.1754776964675907e-10	3.4896948e-09	5.234542e-09	0.8639747
1.2001649583568572e-10	3.753068e-09	5.069934e-09	0.8649659
1.2253459336953826e-10	3.7201462e-09	5.79421e-09	0.865933
1.2500330383095533e-10	3.7201462e-09	6.5184866e-09	0.8668461
1.275214087045644e-10	3.5226164e-09	6.18927e-09	0.86774844
1.3003950066167084e-10	2.2057505e-09	6.5843295e-09	0.86862767
1.3250822685818328e-10	2.0411421e-09	6.1234267e-09	0.8694723
1.3502631695002302e-10	2.4032802e-09	6.1234267e-09	0.8703208
1.375444216489916e-10	2.0082205e-09	6.748938e-09	0.8711606
1.400131363658914e-10	2.0082205e-09	6.913546e-09	0.8719792
1.425312311584166e-10	1.679004e-09	7.045233e-09	0.87281346
1.450493284347845e-10	9.547279e-10	7.901195e-09	0.87365085
1.4751805276952743e-10	-1.6460824e-10	7.901195e-09	0.8744785
1.5003615608835797e-10	-2.6337318e-10	7.967039e-09	0.8753338
1.5250487268147896e-10	-5.925897e-10	7.3744495e-09	0.8761869
1.550229737484453e-10	-5.2674637e-10	7.242763e-09	0.8770765
1.5754108050955934e-10	-6.58433e-10	7.5719795e-09	0.87799037
1.6000981126470074e-10	-1.218101e-09	8.559629e-09	0.87891513
1.6252790525982705e-10	-2.5020452e-09	8.888845e-09	0.87989354
1.6504600503666202e-10	-4.016441e-09	8.296255e-09	0.8809138
1.675147403801619e-10	-4.8065605e-09	7.308606e-09	0.8819623
1.700328415394756e-10	-5.069934e-09	7.4402924e-09	0.88308895
1.725015651316397e-10	-6.1234267e-09	7.0781545e-09	0.88425946
1.7501968686110354e-10	-6.847703e-09	6.5184866e-09	0.8855324
1.7753779294314754e-10	-6.946468e-09	6.5843295e-09	0.88689834
1.800065189145987e-10	-7.901195e-09	6.1563483e-09	0.88834405
1.8252462119306008e-10	-9.744808e-09	6.1234267e-09	0.88994664
1.8504274270373844e-10	-1.12921255e-08	5.5966805e-09	0.8917018
1.875114880407642e-10	-1.3102816e-08	4.4773443e-09	0.8935981
1.9002960902514155e-10	-1.5473175e-08	2.6995752e-09	0.8957446
1.9254772573572403e-10	-1.6790041e-08	-4.609031e-10	0.89814526
1.9501648577450084e-10	-1.8831184e-08	-2.897105e-09	0.9007897
1.9753462268683066e-10	-2.1004011e-08	-4.8065605e-09	0.9038318
2.0000338901648878e-10	-2.4032804e-08	-9.086375e-09	0.90719384
2.0252153051333204e-10	-2.7851714e-08	-1.5670704e-08	0.9110285
2.0503969169977544e-10	-3.055129e-08	-2.4493707e-08	0.91521645
2.0750847333303096e-10	-3.1637704e-08	-3.7267306e-08	0.9194375
2.100266485271746e-10	-3.137433e-08	-5.290509e-08	0.9232312
2.125448384709138e-10	-2.5613042e-08	-7.453461e-08	0.9250449
2.1501365915280793e-10	-1.1687185e-08	-9.771145e-08	0.922073
2.1753188188073507e-10	1.5226263e-08	-1.1720107e-07	0.9098015
2.2000073322910116e-10	5.4057345e-08	-1.2497058e-07	0.88622224
2.2251896307143002e-10	9.843573e-08	-1.3142322e-07	0.85528994
2.2503719987267575e-10	1.5038609e-07	-1.17036464e-07	0.82214063
2.275061581913934e-10	1.797522e-07	-5.448533e-08	0.78801405
2.3002479170362917e-10	1.7058352e-07	2.4296178e-08	0.7537147
2.325435171236338e-10	1.3346437e-07	8.439773e-08	0.72265595
2.350122295061207e-10	8.701192e-08	1.1417228e-07	0.6971966
2.37530256008565e-10	4.1217906e-08	1.17727815e-07	0.6770674
2.400484070324963e-10	3.1275567e-09	1.0350566e-07	0.6626341
2.4251716581341694e-10	-2.1300307e-08	7.927533e-08	0.6537043
2.450352886724079e-10	-3.236198e-08	5.6493548e-08	0.64920646
2.4750403619518526e-10	-3.4847567e-08	3.7662367e-08	0.6484092
2.500221986514759e-10	-3.1456636e-08	2.2123348e-08	0.65066147
2.5254039858128016e-10	-2.7061596e-08	1.3958779e-08	0.65557754
2.5500925473798426e-10	-2.3736508e-08	8.559629e-09	0.66252875
2.57527476980904e-10	-2.074064e-08	3.6872247e-09	0.6713123
2.600456915500705e-10	-1.75637e-08	-6.58433e-10	0.6814032
2.625145424312486e-10	-1.4419682e-08	-3.8189114e-09	0.6922753
2.6503275868660284e-10	-1.0008181e-08	-5.135777e-09	0.70412797
2.675015862295545e-10	-7.045233e-09	-5.79421e-09	0.716288
2.700197978576797e-10	-4.213971e-09	-5.135777e-09	0.72903615
2.7253799152230185e-10	-2.3045155e-09	-4.2798143e-09	0.7419372
2.750068268035805e-10	-1.9752988e-09	-3.1604783e-09	0.75455576
2.775250143817046e-10	-7.571979e-10	-2.7983402e-09	0.76721853
2.8004319751591813e-10	1.5308567e-09	-2.0411421e-09	0.77948767
2.8251198642744903e-10	1.9423774e-09	-3.292165e-10	0.7909462
2.8503015823557333e-10	2.1728288e-09	1.2839443e-09	0.8018557
2.8754830814223726e-10	2.1399071e-09	3.1604783e-09	0.8117929
2.900170683940875e-10	3.2592433e-09	4.9629385e-09	0.82044816
2.9253519436625025e-10	3.4896948e-09	5.769519e-09	0.82808846
2.950039476124142e-10	4.115206e-09	6.3209566e-09	0.83441854
2.975220653114383e-10	3.094635e-09	8.164569e-09	0.8397755
3.000401783613501e-10	1.9752988e-09	8.691315e-09	0.84416324
3.0250889213663176e-10	6.255113e-10	8.362099e-09	0.8476854
3.0502699070951455e-10	-2.3045155e-10	8.296255e-09	0.85064447
3.075450705787388e-10	-8.724237e-10	8.362099e-09	0.85310715
3.1001377596055233e-10	-1.218101e-09	7.5719795e-09	0.8551532
3.125318378627287e-10	-1.8271515e-09	7.637823e-09	0.85695446
3.1500054474864674e-10	-1.876534e-09	7.308606e-09	0.85850644
3.175186171180993e-10	-2.3703588e-09	5.629602e-09	0.85992247
3.200366845927622e-10	-1.1522577e-09	5.5966805e-09	0.86120796
3.2250538417019523e-10	-1.0864144e-09	5.267464e-09	0.8623694
3.250234670981273e-10	-5.432072e-10	5.0040905e-09	0.86347437
3.275415490752456e-10	-5.1028554e-10	5.0040905e-09	0.86451536
3.3001024247494204e-10	-1.218101e-09	5.530837e-09	0.86548615
3.325283217499868e-10	-1.5802392e-09	4.971169e-09	0.8664352
3.350464102285675e-10	-2.1728288e-09	4.3456576e-09	0.86735135
3.375151083118176e-10	-2.1728288e-09	2.9629483e-09	0.8682238
3.400332006427838e-10	-1.2510226e-09	3.2263217e-09	0.8690934
3.4250189725114874e-10	-6.255113e-10	3.0287917e-09	0.869931
3.4501998982425614e-10	-5.5966803e-10	3.4896948e-09	0.8707744
3.4753806971108557e-10	-5.2674637e-10	3.8847547e-09	0.8716113
3.5000677999774106e-10	-1.1193361e-09	4.411501e-09	0.8724291
3.5252486399023684e-10	-1.9094557e-09	4.0822843e-09	0.8732646
3.5504294346957445e-10	-2.3374371e-09	3.6213814e-09	0.8741053
3.5751166974102333e-10	-1.8436124e-09	2.633732e-09	0.87493837
3.6002975080602063e-10	-9.876494e-10	2.8312617e-09	0.87580127
3.625478398150277e-10	-5.2674637e-10	2.8312617e-09	0.8766816
3.650165405977839e-10	-9.218062e-10	3.6872247e-09	0.87756634
3.675346284568355e-10	-1.316866e-09	3.6872247e-09	0.8784956
3.7000335700251805e-10	-2.0411421e-09	3.6872247e-09	0.87943834
3.725214407662411e-10	-2.2386721e-09	3.753068e-09	0.8804384
3.7503952284324653e-10	-2.633732e-09	3.358008e-09	0.88148445
3.7750824165909713e-10	-2.4691236e-09	3.2921648e-09	0.8825623
3.800263439704897e-10	-2.9300267e-09	3.4896948e-09	0.88372445
3.825444327909154e-10	-2.4691236e-09	3.4238514e-09	0.8849607
3.850131474520026e-10	-2.6995752e-09	3.4238514e-09	0.8862569
3.8753124710676664e-10	-3.0287917e-09	3.6213814e-09	0.88768
3.9004935186917823e-10	-3.917676e-09	3.4238514e-09	0.889223
3.9251808960181224e-10	-4.411501e-09	3.4238514e-09	0.89087296
3.950361920344018e-10	-5.333307e-09	3.851833e-09	0.892722
3.975049156834914e-10	-6.617251e-09	3.0287917e-09	0.89472723
4.000230348440937e-10	-7.341528e-09	2.436202e-09	0.89700556
4.0254114523611356e-10	-8.691315e-09	9.547279e-10	0.89956206
4.050098898775544e-10	-9.448513e-09	-4.609031e-10	0.9023849
4.0752801367902713e-10	-1.0436163e-08	-1.4608982e-09	0.90563357
4.100461526524546e-10	-1.237854e-08	-4.411501e-09	0.9092887
4.125149160531698e-10	-1.4551369e-08	-7.506136e-09	0.9132531
4.150330765199866e-10	-1.6526668e-08	-1.1851793e-08	0.91755176
4.175018695462568e-10	-1.7481396e-08	-1.817275e-08	0.9216151
4.2002004517187046e-10	-1.7119257e-08	-2.7259125e-08	0.924601
4.225382244185185e-10	-1.29546684e-08	-3.8189114e-08	0.92424244
4.250070550577427e-10	-5.197505e-09	-4.8987413e-08	0.9168994
4.27525278655405e-10	9.415592e-09	-5.7020294e-08	0.8981125
4.3004351841295237e-10	2.9003973e-08	-6.110258e-08	0.8692973
4.325123685732354e-10	5.096271e-08	-6.452643e-08	0.8376617
4.3503064029582424e-10	7.295437e-08	-4.8032685e-08	0.80346227
4.375491339390826e-10	8.204075e-08	-1.4551369e-08	0.7685876
4.400184951308033e-10	7.413955e-08	1.8436124e-08	0.7364085
4.425368614195131e-10	5.5242527e-08	4.0757e-08	0.70795965
4.4500544238707895e-10	3.4798184e-08	4.9119098e-08	0.685607
4.475235538822103e-10	1.6394981e-08	4.793392e-08	0.6685918
4.500416935898054e-10	1.316866e-09	4.055947e-08	0.6571115
4.525104048255231e-10	-6.5184866e-09	3.0814665e-08	0.6507634
4.550284949258795e-10	-9.6295825e-09	2.1991662e-08	0.6483716
4.5754662724837735e-10	-9.909416e-09	1.5143959e-08	0.6493148
4.6001541849915853e-10	-8.831233e-09	1.0534928e-08	0.6530111
4.625336180028639e-10	-8.526707e-09	8.164569e-09	0.659172
4.6500243796458227e-10	-7.860043e-09	5.530837e-09	0.66708267
4.675206300018673e-10	-7.226302e-09	2.5020452e-09	0.6766145
4.700388344320378e-10	-5.4979155e-09	2.6337318e-10	0.6872806
4.7250764973579e-10	-3.094635e-09	-5.2674637e-10	0.69858694
4.750258676804565e-10	-1.7283865e-09	-1.3168659e-10	0.71076536
4.775440493815164e-10	-1.1357969e-09	-1.3168659e-10	0.7233842
4.800128733400026e-10	3.2921648e-11	-1.3168659e-10	0.7359882
4.825310615243944e-10	1.0534927e-09	3.7859896e-10	0.7488944
4.850492298568859e-10	7.571979e-10	1.3827093e-09	0.76167154
4.875180279859313e-10	1.3168659e-10	2.4032802e-09	0.77389747
4.900362013048393e-10	-9.547279e-10	2.5514277e-09	0.7858739
4.925049677791257e-10	-4.2798143e-10	8.5596286e-10	0.7969404
4.950231201022463e-10	2.0740638e-09	4.156358e-10	0.80734706
4.975412398147612e-10	3.6872247e-09	1.1152208e-09	0.81669444
5.000099782397676e-10	4.5761093e-09	3.4485428e-09	0.82471985
5.02528093885314e-10	4.609031e-09	5.3991505e-09	0.8317095
5.050461814653252e-10	3.6213814e-09	6.3209566e-09	0.8375416
5.075149063538545e-10	2.2057505e-09	6.4197216e-09	0.84225184
5.100329721611485e-10	1.5143958e-09	5.9258967e-09	0.8461859
5.125016618992359e-10	1.5143958e-09	5.267464e-09	0.8493509
5.150197252883281e-10	2.716036e-09	4.411501e-09	0.8520261
5.175377803752969e-10	3.0617133e-09	4.872404e-09	0.85427165
5.20006456266038e-10	2.5020452e-09	5.7283667e-09	0.8561555
5.225245284055156e-10	1.3827093e-09	5.8600533e-09	0.8578308
5.250425692945698e-10	4.4444226e-10	5.135777e-09	0.85931593
5.275112499231651e-10	5.925897e-10	4.0493626e-09	0.8606299
5.300293003044703e-10	1.7283865e-09	3.4238514e-09	0.86185753
5.325473591596219e-10	1.5967e-09	4.3456576e-09	0.8629957
5.350160450180613e-10	1.8436124e-09	4.8065605e-09	0.8640428
5.375341045938338e-10	1.497935e-09	4.4773443e-09	0.8650548
5.400027877349707e-10	6.255113e-10	4.4773443e-09	0.86600244
5.42520844303598e-10	4.609031e-10	4.609031e-09	0.86693287
5.450389059744116e-10	5.2674637e-10	4.312736e-09	0.867834
5.475075950907347e-10	7.901196e-10	3.8189114e-09	0.86869496
5.500256552112519e-10	1.4156308e-09	4.312736e-09	0.8695557
5.52543711814493e-10	1.1522577e-09	4.839482e-09	0.87040335
5.550123920030941e-10	1.5143958e-09	5.79421e-09	0.87122613
5.575304523330716e-10	6.255113e-10	6.2551133e-09	0.872061
5.600485192791749e-10	-1.975299e-10	5.79421e-09	0.8728956
5.625172047625735e-10	-2.3045155e-10	5.333307e-09	0.87371695
5.650352640721122e-10	9.218062e-10	5.3991505e-09	0.87456214
5.675039506156594e-10	-2.3045155e-10	6.18927e-09	0.87540174
5.700220097235542e-10	1.3168659e-10	6.3209566e-09	0.8762735
5.725400849503554e-10	-1.975299e-10	6.5843295e-09	0.8771652
5.750087680849807e-10	-2.6337318e-10	7.111076e-09	0.8780636
5.775268589961282e-10	-1.316866e-09	7.1769195e-09	0.87900966
5.80044916332375e-10	-1.9094557e-09	7.1769195e-09	0.87999177
5.82513609175037e-10	-2.2057505e-09	7.045233e-09	0.8809961
5.850316923457321e-10	-2.9629483e-09	6.7818595e-09	0.8820702
5.875003817767642e-10	-3.094635e-09	6.3868e-09	0.8831803
5.900184359045595e-10	-4.115206e-09	7.3744495e-09	0.8843809
5.925365214271006e-10	-4.872404e-09	6.5184866e-09	0.88566214
5.950052154520943e-10	-5.99174e-09	6.1234267e-09	0.88701016
5.975232909523304e-10	-6.913546e-09	5.9588183e-09	0.8884954
6.000413655579124e-10	-7.111076e-09	5.79421e-09	0.89011174
6.025100875578645e-10	-8.493785e-09	5.8600533e-09	0.89184695
6.050281632621477e-10	-9.5472785e-09	5.2016205e-09	0.8937987
6.075462662190804e-10	-1.1654263e-08	3.6872247e-09	0.89596826
6.100149805472247e-10	-1.3102816e-08	3.0287917e-09	0.89834595
6.12533085695685e-10	-1.616453e-08	1.679004e-09	0.901072
6.150018262255212e-10	-1.9259165e-08	-8.7036606e-10	0.9040867
6.175199354683642e-10	-2.3506058e-08	-5.069934e-09	0.9075521
6.200380531011442e-10	-2.6995751e-08	-1.1045213e-08	0.9114257
6.22506807016921e-10	-3.0913426e-08	-1.9094557e-08	0.91555506
6.250249565229852e-10	-3.3843456e-08	-3.0814665e-08	0.9198478
6.275431107255182e-10	-3.6016285e-08	-4.6024464e-08	0.9235306
6.30011892503003e-10	-3.4238514e-08	-6.610667e-08	0.9250297
6.325300818773998e-10	-2.3884656e-08	-9.0797904e-08	0.92135835
6.350482780746463e-10	-1.0411472e-09	-1.1417228e-07	0.90794444
6.375171264997949e-10	3.595044e-08	-1.2589238e-07	0.883366
6.400353513955187e-10	7.565395e-08	-1.3590056e-07	0.85212725
6.425042050439432e-10	1.2418046e-07	-1.2701172e-07	0.8194538
6.450225773370152e-10	1.5934079e-07	-6.6419425e-08	0.7845821
6.475412216874479e-10	1.5808976e-07	5.530837e-09	0.7504874
6.50010463383674e-10	1.3339852e-07	6.0847434e-08	0.7204211
6.525284514275728e-10	9.448513e-08	9.283905e-08	0.6949623
6.550464800196606e-10	5.3958583e-08	1.0199127e-07	0.6754069
6.575152201267651e-10	1.8897026e-08	9.323411e-08	0.66173565
6.600332939398807e-10	-6.9793895e-09	7.7168345e-08	0.653074
6.625019774459866e-10	-2.1399071e-08	5.7415356e-08	0.6490217
6.650200635397219e-10	-2.6041024e-08	4.0822844e-08	0.6485002
6.675381764956201e-10	-2.55472e-08	2.7917558e-08	0.6510321
6.700069592034179e-10	-2.3518403e-08	1.8831184e-08	0.65606135
6.725251452870723e-10	-2.1431994e-08	1.27736e-08	0.6633199
6.750433258762933e-10	-1.9456694e-08	7.3744495e-09	0.6722474
6.775121357811037e-10	-1.7333248e-08	2.1069855e-09	0.6822383
6.800303167920646e-10	-1.3835323e-08	-2.1728288e-09	0.69340396
6.825484887590978e-10	-9.909416e-09	-4.0822843e-09	0.7053201
6.850172948951258e-10	-7.292145e-09	-4.1481276e-09	0.7175222
6.875354620174394e-10	-4.9053255e-09	-3.917676e-09	0.73029363
6.900042443261795e-10	-3.654303e-09	-2.8724139e-09	0.74294627
6.925224022462946e-10	-3.1934e-09	-1.679004e-09	0.7558052
6.950405608108645e-10	-2.1069855e-09	-2.6666536e-09	0.7684378
6.975093307477046e-10	-4.609031e-10	-1.6460824e-09	0.7804236
7.000274672691073e-10	5.2674637e-10	-4.3456576e-09	0.79204965
7.025455878363495e-10	4.5431876e-09	-1.8847643e-09	0.80287176
7.050143207999602e-10	5.366229e-09	4.312736e-09	0.81252277
7.075324237577762e-10	3.3909298e-09	9.086375e-09	0.8212475
7.100011405782287e-10	2.3374371e-09	6.4361823e-09	0.82863367
7.12519211950175e-10	3.753068e-09	4.938247e-09	0.8349885
7.150372715360892e-10	5.0040905e-09	4.4773443e-09	0.8402437
7.175059427718382e-10	7.0781545e-09	4.872404e-09	0.84446925
7.200239834569209e-10	8.230412e-09	8.032882e-09	0.84799963
7.225420287090879e-10	5.9258967e-09	1.1851793e-08	0.8509044
7.250106917142265e-10	1.9094557e-09	1.27736e-08	0.8532817
7.275287183710146e-10	-1.218101e-09	1.017279e-08	0.85534024
7.300467408390619e-10	-1.5802392e-09	6.2551133e-09	0.85711724
7.325153884239809e-10	2.3045155e-10	3.555538e-09	0.85865116
7.35033399126008e-10	1.6954649e-09	4.115206e-09	0.8600529
7.375020600064534e-10	2.7654186e-09	5.530837e-09	0.86130345
7.400200892963796e-10	2.1399071e-09	8.032882e-09	0.8624803
7.425381044253962e-10	9.876495e-11	9.415592e-09	0.8635783
7.450067588543654e-10	-2.3868196e-09	7.835352e-09	0.864594
7.475247771375788e-10	-3.555538e-09	5.3991505e-09	0.86558014
7.500427941676562e-10	-2.0411421e-09	3.6213814e-09	0.8665257
7.525114659823479e-10	-6.5843296e-11	3.555538e-09	0.86742127
7.550295093300286e-10	5.2674637e-10	4.7407176e-09	0.86830914
7.575475425128163e-10	7.2427625e-10	6.2551133e-09	0.8691771
7.600162064569308e-10	-9.876494e-10	6.9793895e-09	0.87001336
7.625342305257014e-10	-2.436202e-09	6.847703e-09	0.8708559
7.650028907905669e-10	-3.2592433e-09	5.3991505e-09	0.871676
7.675209227628045e-10	-2.6008102e-09	3.9505976e-09	0.8725102
7.700389675357562e-10	-2.1399071e-09	3.1604783e-09	0.873346
7.72507634453763e-10	-1.316866e-09	3.4896948e-09	0.8741709
7.750256734127175e-10	-8.5596286e-10	3.8189114e-09	0.8750216
7.775437171928193e-10	-1.6131608e-09	4.0822843e-09	0.87588596
7.800123839641084e-10	-1.9094557e-09	4.3456576e-09	0.87675065
7.825304186392052e-10	-2.3045155e-09	3.8189114e-09	0.8776552
7.850484613707739e-10	-2.3374371e-09	3.4238514e-09	0.87858737
7.875171394811204e-10	-2.436202e-09	3.8189114e-09	0.8795335
7.900351797954803e-10	-2.7654186e-09	3.753068e-09	0.88053775
7.925038523271377e-10	-3.2592433e-09	3.1604783e-09	0.8815676
7.950219028994711e-10	-3.0287917e-09	3.0287917e-09	0.88267213
7.975399416485145e-10	-3.1604783e-09	3.0287917e-09	0.88384086
8.000086277784546e-10	-3.917676e-09	2.436202e-09	0.88505965
8.025266776575923e-10	-4.707796e-09	2.6008102e-09	0.8863901
8.050447241767311e-10	-4.609031e-09	2.2057505e-09	0.8878239
8.075134116733934e-10	-4.5431876e-09	9.547279e-10	0.8893478
8.100314609896134e-10	-4.938247e-09	5.2674637e-10	0.8910444
8.125001569266732e-10	-5.037012e-09	1.0534927e-09	0.89287263
8.15018220591824e-10	-6.716016e-09	8.230412e-10	0.89493686
8.175362916674744e-10	-7.934117e-09	-3.7859896e-10	0.8972401
8.200049943002972e-10	-8.263334e-09	-2.1069855e-09	0.8997723
8.225230701926765e-10	-9.283905e-09	-4.213971e-09	0.9026821
8.250411615793915e-10	-9.283905e-09	-6.4464705e-09	0.90596914
8.275098922580069e-10	-9.218062e-09	-8.510246e-09	0.9095877
8.3002800426685e-10	-9.448513e-09	-1.1654263e-08	0.91366154
8.325461231891987e-10	-9.053453e-09	-1.6460824e-08	0.9179694
8.350148801144625e-10	-7.7695095e-09	-2.2715938e-08	0.9219785
8.375330282200639e-10	-3.9835193e-09	-3.0419603e-08	0.9247608
8.400018134451072e-10	2.518506e-09	-3.9637666e-08	0.9239753
8.425200045328086e-10	1.4724208e-08	-4.6617053e-08	0.915627
8.45038202123896e-10	3.1267337e-08	-4.674874e-08	0.8956614
8.475070366282737e-10	4.9843376e-08	-4.556356e-08	0.8668774
8.500252527787804e-10	7.2625156e-08	-4.0757e-08	0.83444124
8.52543535997976e-10	8.704484e-08	-1.5012272e-08	0.80008054
8.550126777306254e-10	7.999961e-08	1.8106906e-08	0.7659515
8.575314056671876e-10	6.00244e-08	4.5497718e-08	0.73343754
8.60000238040666e-10	3.5028634e-08	5.833716e-08	0.705997
8.625182200201509e-10	1.1818872e-08	5.7283668e-08	0.6837136
8.650362984902901e-10	-5.366229e-09	4.872404e-08	0.66724527
8.675049635031131e-10	-1.478182e-08	3.6082128e-08	0.6564474
8.700229848406931e-10	-1.7909377e-08	2.317684e-08	0.6503681
8.725410536084154e-10	-1.7185101e-08	1.3695406e-08	0.6483265
8.750097758574798e-10	-1.4501986e-08	8.427942e-09	0.64951074
8.775278908745322e-10	-1.1967019e-08	3.555538e-09	0.6535078
8.800460339140545e-10	-9.407361e-09	1.316866e-09	0.659876
8.825148127598299e-10	-7.753048e-09	-7.901196e-10	0.66794395
8.85032976085886e-10	-6.4197216e-09	-2.5020452e-09	0.67759836
8.875017446016553e-10	-3.9999803e-09	-3.555538e-09	0.6881389
8.900199079393265e-10	-2.0411421e-09	-3.555538e-09	0.69973594
8.925380613841015e-10	-2.1399071e-10	-2.7654186e-09	0.71196556
8.950068280530144e-10	1.3827093e-09	-2.2386721e-09	0.7243651
8.97524991379911e-10	1.2345618e-09	-2.0390847e-09	0.73723227
9.000431209019767e-10	2.4691236e-09	-1.2510226e-09	0.75013363
9.025118782078282e-10	3.0287917e-09	4.609031e-10	0.762641
9.050299935993561e-10	2.9629483e-09	1.777769e-09	0.7750754
9.075481097690804e-10	2.3374371e-09	2.7654186e-09	0.78699327
9.100168440972886e-10	1.6131608e-09	2.4896998e-09	0.7979838
9.125349313189327e-10	1.5143958e-09	1.3827093e-09	0.80829483
9.150036418462686e-10	2.5020452e-09	1.5143958e-09	0.81736314
9.175217099619155e-10	3.6213814e-09	3.2921648e-09	0.8254445
9.200397449819171e-10	3.5226164e-09	4.872404e-09	0.83231914
9.225084230758626e-10	2.5020452e-09	5.8600533e-09	0.8379435
9.250264469605487e-10	1.2510226e-09	6.3209566e-09	0.84266555
9.275444636387867e-10	-1.3168659e-10	5.0040905e-09	0.8465239
9.300131045503247e-10	-9.876495e-11	4.0822843e-09	0.84963006
9.325311001479959e-10	8.5596286e-10	3.555538e-09	0.8522586
9.350490839239461e-10	1.8271515e-09	2.897105e-09	0.85446864
9.375177125642076e-10	1.876534e-09	4.312736e-09	0.8563262
9.400357143819592e-10	1.4485525e-09	5.432072e-09	0.8579808
9.425043316098302e-10	-1.975299e-10	5.8600533e-09	0.85942286
9.45022328263839e-10	-7.571979e-10	4.4773443e-09	0.86075217
9.475403312542222e-10	-4.2798143e-10	3.2921648e-09	0.8619702
9.500089641776643e-10	1.975299e-10	3.2921648e-09	0.8630794
9.525269689175706e-10	7.571979e-10	3.094635e-09	0.8641421
9.55044971803636e-10	4.2798143e-10	3.8189114e-09	0.86514914
9.575136005330423e-10	5.5966803e-10	3.9505976e-09	0.86609316
9.600316120667198e-10	4.2798143e-10	4.016441e-09	0.8670203
9.625002580262096e-10	5.5966803e-10	3.5884598e-09	0.86790156
9.650182532275439e-10	-3.2921648e-11	3.555538e-09	0.8687781
9.675362585422113e-10	2.6337318e-10	3.6872247e-09	0.8696372
9.700049025735463e-10	1.975299e-10	3.5226164e-09	0.87046754
9.725229205317355e-10	2.6337318e-10	4.213971e-09	0.87130624
9.750409306162611e-10	-1.6460824e-10	4.213971e-09	0.8721409
9.775095707458175e-10	5.2674637e-10	4.3456576e-09	0.8729591
9.800275854461474e-10	1.6460824e-10	4.7407176e-09	0.8737974
9.8254560304928e-10	-3.2921648e-11	4.6748743e-09	0.87464345
9.850142401707257e-10	-3.950598e-10	3.8189114e-09	0.87548435
9.875322563236429e-10	-3.950598e-10	4.5431876e-09	0.8763578
9.900008955680653e-10	-3.292165e-10	4.411501e-09	0.87723386
9.92518914044382e-10	-3.292165e-10	4.938247e-09	0.87815255
9.950369356260967e-10	-1.3168659e-10	4.6748743e-09	0.879102
9.975055931351808e-10	2.6337318e-10	5.135777e-09	0.880068
1.000023616008686e-09	-6.5843296e-11	5.069934e-09	0.8810964
1.0025416464127144e-09	-1.3168659e-10	5.79421e-09	0.8821756
1.0050102958297153e-09	-6.9135464e-10	6.7818595e-09	0.8832919
1.0075283172329221e-09	-1.9094557e-09	7.3744495e-09	0.8844995
1.0100463480452472e-09	-2.5020452e-09	6.5184866e-09	0.8857891
1.012515003728328e-09	-2.534967e-09	5.9258967e-09	0.8871468
1.0150330442579075e-09	-2.4691236e-09	6.5184866e-09	0.8886436
1.017501703440291e-09	-3.1934e-09	6.650173e-09	0.89024025
1.020019743382834e-09	-3.851833e-09	6.4526433e-09	0.89202476
1.0225377950388637e-09	-5.2016205e-09	7.045233e-09	0.8939957
1.025006485207269e-09	-6.18927e-09	7.5719795e-09	0.89614266
1.0275245338533112e-09	-7.670744e-09	7.506136e-09	0.8985919
1.0300425896148544e-09	-1.0534928e-08	8.032882e-09	0.9013496
1.0325112853820512e-09	-1.2905287e-08	6.997908e-09	0.90439945
1.0350293688988958e-09	-1.695465e-08	5.5884497e-09	0.9079039
1.0375474530871342e-09	-2.034558e-08	3.0287917e-09	0.91181475
1.0400161842812662e-09	-2.55472e-08	2.4691235e-10	0.9159671
1.0425342916068502e-09	-3.137433e-08	-4.7407176e-09	0.9202411
1.0450030400435948e-09	-3.772821e-08	-1.3168659e-08	0.92374814
1.0475211905601196e-09	-4.3423654e-08	-2.6864065e-08	0.92496926
1.0500393449101317e-09	-4.5794014e-08	-4.5431875e-08	0.92057365
1.0525081611472207e-09	-3.9045077e-08	-6.623836e-08	0.9064293
1.055026353576576e-09	-2.1464915e-08	-8.5991346e-08	0.88053733
1.0575445601364144e-09	-1.1193361e-09	-1.1022168e-07	0.8490399
1.0600134007530828e-09	3.4238514e-08	-1.2016402e-07	0.8161779
1.0625317861433688e-09	7.6049005e-08	-9.507772e-08	0.78125715
1.0650010896821187e-09	9.998305e-08	-5.010675e-08	0.7480225
1.0675196486449224e-09	1.031106e-07	-5.530837e-09	0.7177519
1.0700376126463783e-09	8.925059e-08	2.7061596e-08	0.69284695
1.072506242775808e-09	6.650173e-08	4.451007e-08	0.6741632
1.0750242716684873e-09	4.1678806e-08	5.188452e-08	0.6606894
1.0775422993247655e-09	2.077356e-08	4.9250787e-08	0.652504
1.080010950582978e-09	6.4361823e-09	4.213971e-08	0.6488271
1.082529005613652e-09	-2.7983402e-09	3.2658274e-08	0.64861655
1.08504711264942e-09	-6.469104e-09	2.5020453e-08	0.65141624
1.0875158477558707e-09	-7.621361e-09	1.896287e-08	0.6566667
1.0900339922153001e-09	-7.58844e-09	1.4748899e-08	0.66410375
1.0925027372295849e-09	-7.9835e-09	1.1456733e-08	0.67297655
1.0950208867934263e-09	-7.909426e-09	8.9546885e-09	0.68326074
1.0975390262595684e-09	-7.744818e-09	6.7818595e-09	0.6945072
1.1000077926010364e-09	-6.847703e-09	3.1604783e-09	0.7062427
1.1025259293714397e-09	-5.2016205e-09	2.3703588e-09	0.71872413
1.1050440470750616e-09	-4.1810493e-09	2.2386721e-09	0.73151624
1.107512797555339e-09	-3.4896948e-09	2.1728288e-09	0.74417186
1.110030913868617e-09	-2.436202e-09	1.9094557e-09	0.7570169
1.1125490159750858e-09	-2.732497e-09	8.888845e-10	0.7696182
1.11501773981949e-09	-1.5143958e-09	3.950598e-10	0.78155583
1.117535832833764e-09	-2.9629485e-10	-3.7036854e-10	0.7931138
1.1200045416252865e-09	1.8436124e-09	6.58433e-10	0.80364823
1.1225225971523476e-09	3.5884598e-09	2.0596607e-09	0.81340045
1.1250406525029034e-09	4.6748743e-09	3.1604783e-09	0.8220128
1.1275093172373425e-09	4.707796e-09	4.5761093e-09	0.8292862
1.130027335925231e-09	5.037012e-09	4.938247e-09	0.83553165
1.1325453450397994e-09	5.892975e-09	5.9423577e-09	0.84068966
1.1350139785151793e-09	5.7283667e-09	6.3209566e-09	0.844835
1.1375319686661514e-09	5.069934e-09	6.814781e-09	0.84829915
1.1400005788327279e-09	4.3785793e-09	7.5719795e-09	0.8511013
1.1425185505731365e-09	3.358008e-09	7.111076e-09	0.8534909
1.145036510108012e-09	2.6666536e-09	7.3744495e-09	0.85551924
1.1475051225239186e-09	2.3045155e-09	7.3744495e-09	0.85724115
1.1500230932766122e-09	2.1728288e-09	7.111076e-09	0.8587901
1.1525410689772684e-09	1.679004e-09	7.4402924e-09	0.8601784
1.1550096708859935e-09	7.571979e-10	6.5184866e-09	0.8614186
1.157527656684153e-09	7.7365875e-10	6.3538783e-09	0.8625872
1.1600456388724376e-09	7.2427625e-10	5.8600533e-09	0.8636787
1.1625142495052702e-09	5.5966803e-10	5.79421e-09	0.8646892
1.1650322399950507e-09	6.9135464e-10	5.5966805e-09	0.86567104
1.1675008643652664e-09	1.1522577e-09	6.0575833e-09	0.8665952
1.170018848903082e-09	8.888845e-10	6.5843295e-09	0.86750615
1.172536828652226e-09	6.58433e-10	6.913546e-09	0.86839193
1.1750054519407904e-09	3.950598e-10	6.090505e-09	0.86924136
1.17752343500052e-09	9.876495e-11	6.716016e-09	0.87009335
1.180041435037443e-09	-6.5843296e-11	6.650173e-09	0.8709351
1.1825100613148461e-09	-1.975299e-10	6.18927e-09	0.87175477
1.1850280494710738e-09	-4.938247e-10	6.0575833e-09	0.872589
1.18754606130936e-09	-1.6460824e-10	5.6625233e-09	0.87342507
1.1900146706088387e-09	-2.9629485e-10	5.79421e-09	0.87425065
1.1925326740151495e-09	-4.938247e-10	5.79421e-09	0.87510246
1.1950013136357117e-09	-2.6337318e-10	5.3991505e-09	0.8759512
1.1975193145220352e-09	-4.609031e-10	5.9258967e-09	0.876835
1.2000373100216328e-09	-7.571979e-10	6.18927e-09	0.8777419
1.2025059470622986e-09	-1.5802392e-09	6.18927e-09	0.8786581
1.2050239453841439e-09	-1.2510226e-09	5.7283667e-09	0.87962633
1.2075419474374438e-09	-2.1069855e-09	6.3209566e-09	0.88063467
1.210010590445586e-09	-2.8641833e-09	6.9793895e-09	0.8816691
1.212528596994455e-09	-3.1604783e-09	6.9793895e-09	0.8827793
1.2150466089751297e-09	-3.6872247e-09	6.847703e-09	0.8839547
1.2175152615706761e-09	-3.8189114e-09	6.847703e-09	0.88518095
1.2200332680411332e-09	-4.609031e-09	8.493785e-09	0.8865203
1.222501913524633e-09	-6.485565e-09	8.164569e-09	0.8879354
1.225019936515084e-09	-7.4402924e-09	7.3744495e-09	0.8895009
1.2275379597371846e-09	-8.460864e-09	6.847703e-09	0.89121234
1.2300066125541614e-09	-9.119296e-09	6.716016e-09	0.8930578
1.2325246532380794e-09	-1.1028752e-08	6.650173e-09	0.89514285
1.2350426917396672e-09	-1.3432032e-08	5.037012e-09	0.89747065