# t (s)	mx ()	my ()	mz ()	E_total (J)	MaxAngle (rad)
0	1.477359e-09	7.571979e-10	0.9795362	-2.072577e-17	0.26627314
2.5169494629886745e-12	2.296285e-09	-6.9135464e-10	0.9720933	-2.0693784e-17	0.24421549
5.044323902523381e-12	5.135777e-09	-1.0864144e-09	0.9652118	-2.062736e-17	0.23364769
7.518683517209696e-12	9.250983e-09	1.8106907e-09	0.9599346	-2.053334e-17	0.22960657
1.004150482337821e-11	1.2345618e-08	8.032882e-09	0.9568596	-2.041437e-17	0.2271542
1.251364312986479e-11	1.14896554e-08	1.6394981e-08	0.95636886	-2.028061e-17	0.22590849
1.503432070132926e-11	6.6830945e-09	2.4888767e-08	0.95820177	-2.0125526e-17	0.22593404
1.7504944961386323e-11	-4.312736e-09	3.3448394e-08	0.96161926	-1.9945545e-17	0.22341542
2.002457480264903e-11	-2.334145e-08	3.6872247e-08	0.96520376	-1.9713952e-17	0.21879782
2.2543916845464373e-11	-4.7637627e-08	2.9892856e-08	0.96513367	-1.9415729e-17	0.21016946
2.50136793467072e-11	-6.837826e-08	8.559629e-09	0.9539546	-1.9128203e-17	0.20542899
2.7532680647428346e-11	-7.413955e-08	-2.4493707e-08	0.92383367	-1.9061545e-17	0.22142728
3.000214234015205e-11	-5.7942103e-08	-5.3201383e-08	0.8832416	-1.924998e-17	0.24946508
3.252088967991931e-11	-2.0674795e-08	-6.709432e-08	0.848106	-1.9536631e-17	0.2277542
3.503964820706288e-11	1.4946428e-08	-7.233915e-08	0.8204974	-1.9771838e-17	0.20536791
3.750903803073048e-11	4.1876337e-08	-6.6221894e-08	0.7987784	-1.9913667e-17	0.20240945
4.002733206445502e-11	5.99174e-08	-4.9884527e-08	0.7818656	-1.999148e-17	0.20680566
4.254535408823409e-11	6.624453e-08	-2.716036e-08	0.7700337	-2.002857e-17	0.21069422
4.5014157161214603e-11	6.18927e-08	-5.366229e-09	0.7628781	-2.0043256e-17	0.21140753
4.753240338019078e-11	5.132485e-08	1.158842e-08	0.75937206	-2.0047817e-17	0.21283753
5.0001206661341776e-11	3.930845e-08	2.034558e-08	0.75912774	-2.0048853e-17	0.21281101
5.2519361718618226e-11	2.8608913e-08	2.4592472e-08	0.76145977	-2.0050107e-17	0.21229139
5.5037519862617535e-11	1.937439e-08	2.4197412e-08	0.76570374	-2.0053321e-17	0.21284401
5.750631050812589e-11	1.3827092e-08	2.2419643e-08	0.7713093	-2.0059009e-17	0.21367508
6.002447662308075e-11	9.514356e-09	2.0608953e-08	0.7781953	-2.0067405e-17	0.21365175
6.25426749062582e-11	5.810671e-09	1.8073985e-08	0.78589404	-2.0078049e-17	0.2149268
6.50114817097878e-11	4.0822843e-09	1.5226263e-08	0.7938504	-2.0090056e-17	0.2158666
6.752966656823896e-11	3.1275567e-09	1.2656316e-08	0.8020539	-2.0103146e-17	0.21611245
7.00478310624353e-11	2.0082205e-09	9.374439e-09	0.8100874	-2.0116283e-17	0.21838196
7.251663674990682e-11	1.5802392e-09	5.5884497e-09	0.81759274	-2.0128507e-17	0.2193732
7.50348084622451e-11	3.0617133e-09	2.296285e-09	0.8246935	-2.0139715e-17	0.22066633
7.750358082345251e-11	5.464994e-09	-5.7612887e-11	0.83098346	-2.0149109e-17	0.22237408
8.002174165726576e-11	7.7695095e-09	-1.5802392e-09	0.8366492	-2.015692e-17	0.2230242
8.253987531842086e-11	9.481435e-09	-1.9752988e-09	0.84156185	-2.0162948e-17	0.22443701
8.500864687216823e-11	1.0641923e-08	-1.5473175e-09	0.8457058	-2.0167201e-17	0.22536632
8.752679062575012e-11	1.1226282e-08	-1.0205711e-09	0.84933674	-2.0170005e-17	0.22515178
9.00449143240554e-11	1.2707757e-08	1.1522577e-09	0.8524641	-2.0171423e-17	0.22667359
9.251366725281867e-11	1.2625452e-08	3.1934e-09	0.855132	-2.0171646e-17	0.22734945
9.503178194711442e-11	1.178595e-08	5.0040905e-09	0.85752785	-2.017086e-17	0.22739783
9.750049669606527e-11	1.14896554e-08	5.8271317e-09	0.85962474	-2.0169249e-17	0.22752337
1.000186103573115e-10	1.139089e-08	6.4197216e-09	0.8615624	-2.0166882e-17	0.22841243
1.0253673033869306e-10	1.0864144e-08	7.637823e-09	0.86334234	-2.0163904e-17	0.22903678
1.0500546699035776e-10	9.876494e-09	8.691315e-09	0.86496884	-2.0160471e-17	0.22930965
1.075235868668482e-10	9.218062e-09	9.250983e-09	0.8665351	-2.0156502e-17	0.22934872
1.1004168657788098e-10	8.362099e-09	1.0106946e-08	0.86803013	-2.0152103e-17	0.22916275
1.1251042705782031e-10	6.8806245e-09	1.0205711e-08	0.8694447	-2.014738e-17	0.22874652
1.1502852831339625e-10	6.5843295e-09	1.0798301e-08	0.8708506	-2.0142149e-17	0.22809978
1.175466409850725e-10	6.3209566e-09	1.1720107e-08	0.8722327	-2.0136484e-17	0.22723067
1.2001537877939754e-10	4.609031e-09	1.2312697e-08	0.87357616	-2.0130484e-17	0.22616725
1.225334922207079e-10	4.2468926e-09	1.2707757e-08	0.874946	-2.0123857e-17	0.22485925
1.2500223948868397e-10	3.4896948e-09	1.1851793e-08	0.87629884	-2.0116808e-17	0.22334601
1.2752035562752774e-10	2.633732e-09	1.297113e-08	0.8776996	-2.010898e-17	0.22273485
1.3003846606887644e-10	1.7119257e-09	1.3958779e-08	0.8791324	-2.0100405e-17	0.22223702
1.3250721095155122e-10	9.547279e-10	1.5078115e-08	0.8805799	-2.0091155e-17	0.2214715
1.3502531906349114e-10	-7.2427625e-10	1.5341488e-08	0.88211304	-2.0080703e-17	0.22036578
1.375434411207566e-10	-2.5020452e-09	1.5934077e-08	0.88371825	-2.0069031e-17	0.21889007
1.4001217421113864e-10	-4.510266e-09	1.6394981e-08	0.88537836	-2.0056159e-17	0.2184312
1.4253029981969253e-10	-6.090505e-09	1.659251e-08	0.88717943	-2.004126e-17	0.21811025
1.4504841700910616e-10	-7.967039e-09	1.698757e-08	0.8891125	-2.002416e-17	0.21728344
1.4751716572434473e-10	-1.06995355e-08	1.738263e-08	0.8911631	-2.0004741e-17	0.21585575
1.500352877954547e-10	-1.3728328e-08	1.7514317e-08	0.8934464	-1.9981522e-17	0.21552238
1.5250404905234636e-10	-1.7185101e-08	1.7448473e-08	0.8959118	-1.9954501e-17	0.21528813
1.5502218891362225e-10	-2.1399071e-08	1.758016e-08	0.89870626	-1.9921315e-17	0.21397142
1.5754032827077128e-10	-2.6732378e-08	1.6526668e-08	0.90183985	-1.9880687e-17	0.21396974
1.600090828562963e-10	-3.374469e-08	1.4946428e-08	0.90530336	-1.9831238e-17	0.2135179
1.6252723347256832e-10	-4.2600615e-08	1.0674844e-08	0.90929943	-1.9767555e-17	0.21325642
1.650453877183132e-10	-5.2411263e-08	4.016441e-09	0.91380906	-1.9685587e-17	0.21279123
1.6751418277084103e-10	-6.301204e-08	-6.847703e-09	0.9187119	-1.958066e-17	0.2134076
1.7003235053456959e-10	-7.4205396e-08	-2.337437e-08	0.9240202	-1.9438685e-17	0.21297602
1.7250115436492118e-10	-8.4641556e-08	-4.872404e-08	0.9289703	-1.9251777e-17	0.21167296
1.7501934782368102e-10	-9.046869e-08	-8.493785e-08	0.93235755	-1.899558e-17	0.211518
1.775375570883903e-10	-8.447695e-08	-1.3115985e-07	0.9310237	-1.8665514e-17	0.20984724
1.8000640205975122e-10	-5.6386554e-08	-1.7988388e-07	0.9200978	-1.831694e-17	0.21330231
1.825246436375838e-10	8.691315e-09	-2.1280553e-07	0.89496934	-1.8093673e-17	0.23349781
1.8504287331378883e-10	8.072388e-08	-2.2873961e-07	0.8612151	-1.8221189e-17	0.25196058
1.8751173862317082e-10	1.5552187e-07	-2.2393306e-07	0.8277252	-1.8644929e-17	0.21389534
1.9003006284949336e-10	2.2255034e-07	-1.463038e-07	0.793917	-1.9071979e-17	0.19973752
1.9254866980694488e-10	2.4148028e-07	-3.2855805e-08	0.7619469	-1.9375202e-17	0.20025386
1.950178861190429e-10	2.1476437e-07	6.340709e-08	0.73440194	-1.9568001e-17	0.20567954
1.9753589332624417e-10	1.5996629e-07	1.2325866e-07	0.7115366	-1.9688852e-17	0.20993736
2.000045959497261e-10	9.836989e-08	1.4419682e-07	0.69466275	-1.9756322e-17	0.21179464
2.0252274230269667e-10	4.296275e-08	1.3629563e-07	0.6827497	-1.9791833e-17	0.21148564
2.050408600633834e-10	1.7119257e-09	1.1325047e-07	0.6757978	-1.9808046e-17	0.21155037
2.0750960735456435e-10	-2.1629523e-08	8.638641e-08	0.67309713	-1.9814824e-17	0.21091783
2.100277404249677e-10	-3.1983383e-08	6.2682815e-08	0.67365324	-1.981861e-17	0.21096623
2.1254590988271363e-10	-3.420559e-08	4.4641755e-08	0.67697614	-1.9822907e-17	0.21143281
2.1501473377989773e-10	-3.2633583e-08	3.1473096e-08	0.6825366	-1.9829557e-17	0.21126404
2.1753295624780646e-10	-3.051837e-08	2.1464915e-08	0.69012654	-1.9839757e-17	0.21129274
2.2000179674506957e-10	-2.8427843e-08	1.3827092e-08	0.6990108	-1.985338e-17	0.21153276
2.2252000568027997e-10	-2.6073947e-08	6.716016e-09	0.7091728	-1.9870835e-17	0.21193352
2.2503821818001363e-10	-2.3456675e-08	1.8436124e-09	0.7201667	-1.989152e-17	0.21137345
2.275070435137704e-10	-1.9571921e-08	-1.5802392e-09	0.7315332	-1.9914441e-17	0.21189186
2.3002524722583787e-10	-1.5522557e-08	-3.1604783e-09	0.7435151	-1.9939908e-17	0.21276301
2.3254344754053592e-10	-1.26748345e-08	-4.016441e-09	0.75567424	-1.9966815e-17	0.21339776
2.350122632098746e-10	-9.3497485e-09	-3.9505976e-09	0.7675623	-1.9993879e-17	0.21394645
2.3753045424858227e-10	-6.9793895e-09	-2.9300267e-09	0.77945197	-2.0021405e-17	0.21457157
2.4004864652850536e-10	-4.5431876e-09	-3.3991603e-09	0.7909005	-2.0048011e-17	0.21524516
2.425174534175596e-10	-2.2139808e-09	-2.0658335e-09	0.8015006	-2.0072393e-17	0.2167827
2.450356246202285e-10	1.2510226e-09	-6.296265e-10	0.8114864	-2.0094791e-17	0.2189628
2.475044060960922e-10	4.707796e-09	2.7407272e-09	0.820311	-2.0113798e-17	0.22073115
2.5002255306076546e-10	6.2551133e-09	6.551408e-09	0.8282257	-2.0129912e-17	0.22144628
2.5254069155931436e-10	6.485565e-09	9.481435e-09	0.8350186	-2.0142758e-17	0.22351037
2.5500943599960987e-10	6.3209566e-09	1.037032e-08	0.840643	-2.0152403e-17	0.22426315
2.575275509657699e-10	5.892975e-09	1.2345618e-08	0.8454395	-2.0159574e-17	0.22560254
2.6004567999016336e-10	4.3456576e-09	1.3234502e-08	0.84943557	-2.0164415e-17	0.22530897
2.6251441032600326e-10	2.6666536e-09	1.4287996e-08	0.85272545	-2.0167226e-17	0.22684856
2.6503250546288485e-10	3.6213813e-10	1.4090466e-08	0.8555794	-2.0168438e-17	0.22747739
2.675012379969265e-10	-1.316866e-09	1.4090466e-08	0.85799843	-2.0168295e-17	0.22740074
2.70019335906964e-10	-2.3703588e-09	1.3102816e-08	0.8601717	-2.0167042e-17	0.22781493
2.725374322282552e-10	-2.8312617e-09	1.2148089e-08	0.8621198	-2.0164898e-17	0.22865345
2.750061405333733e-10	-3.2263217e-09	1.1950559e-08	0.8638646	-2.0162084e-17	0.22916093
2.7752424158769575e-10	-3.3909298e-09	1.1720107e-08	0.8655172	-2.0158613e-17	0.22933666
2.800423326755894e-10	-5.432072e-09	1.158842e-08	0.8670737	-2.0154623e-17	0.22931254
2.8251105257522626e-10	-5.9258967e-09	1.0567849e-08	0.8685306	-2.0150244e-17	0.22904202
2.850291559808993e-10	-6.5843295e-09	9.613121e-09	0.86996585	-2.0145337e-17	0.22853008
2.8754724735472893e-10	-6.617251e-09	8.559629e-09	0.87136626	-2.0139987e-17	0.2277983
2.900159690572721e-10	-6.9793895e-09	8.559629e-09	0.8727188	-2.0134296e-17	0.22686711
2.925340701613896e-10	-7.1769195e-09	8.559629e-09	0.8740898	-2.012801e-17	0.22569764
2.950027924861096e-10	-7.2756845e-09	7.3744495e-09	0.87543637	-2.0121327e-17	0.224332
2.9752090615807185e-10	-8.032882e-09	6.716016e-09	0.87682354	-2.0113919e-17	0.22291315
3.0003899726704294e-10	-8.131647e-09	5.6625233e-09	0.8782355	-2.0105826e-17	0.22257939
3.0250773738612326e-10	-8.592551e-09	5.2016205e-09	0.87965494	-2.0097127e-17	0.22199053
3.05025843328794e-10	-8.526707e-09	4.3456576e-09	0.881151	-2.0087335e-17	0.22109485
3.0754394777088926e-10	-8.493785e-09	4.0822843e-09	0.88270974	-2.007645e-17	0.21985583
3.1001268975502264e-10	-8.888845e-09	3.0287917e-09	0.88431364	-2.0064505e-17	0.21842295
3.125308077194769e-10	-9.1522185e-09	2.2386721e-09	0.88604456	-2.0050764e-17	0.2183616
3.1504891324408435e-10	-1.0074024e-08	9.876494e-10	0.8878925	-2.0035087e-17	0.2178644
3.175176560567448e-10	-1.0139868e-08	1.3168659e-10	0.8898419	-2.0017405e-17	0.21684173
3.2003577527688487e-10	-1.0995831e-08	-1.1193361e-09	0.89200056	-1.9996423e-17	0.21528478
3.2250453807721105e-10	-1.1917637e-08	-2.436202e-09	0.89431846	-1.99722e-17	0.21553658
3.2502266671118436e-10	-1.2082245e-08	-3.9505976e-09	0.89693123	-1.9942717e-17	0.2149388
3.2754079469058716e-10	-1.3135738e-08	-7.1769195e-09	0.8998464	-1.9906963e-17	0.21341352
3.300095462905736e-10	-1.4090466e-08	-9.942338e-09	0.90305644	-1.9863884e-17	0.21402167
3.3252770002848286e-10	-1.458429e-08	-1.4156309e-08	0.90675455	-1.9808985e-17	0.21277206
3.350458462909131e-10	-1.3925857e-08	-1.955546e-08	0.91094106	-1.9739074e-17	0.2134864
3.375146287974062e-10	-1.2312697e-08	-2.6469005e-08	0.9155488	-1.965052e-17	0.21254273
3.400327828314888e-10	-8.131647e-09	-3.4501888e-08	0.9206991	-1.9531845e-17	0.21297348
3.4250157359540616e-10	-1.316866e-09	-4.3456577e-08	0.9259053	-1.9376734e-17	0.2131877
3.4501976128897273e-10	1.0205711e-08	-5.412319e-08	0.9305644	-1.916369e-17	0.21199074
3.4753796471331425e-10	2.8608913e-08	-6.5843295e-08	0.93264633	-1.8878981e-17	0.21086088
3.5000680754304726e-10	5.3859818e-08	-7.111076e-08	0.92844397	-1.8535445e-17	0.20955548
3.5252502746799436e-10	8.47074e-08	-6.162933e-08	0.91226596	-1.8205074e-17	0.21826914
3.550432665517088e-10	1.12987095e-07	-3.23949e-08	0.8825892	-1.8091881e-17	0.24713042
3.575121215760319e-10	1.3590056e-07	-3.2921648e-09	0.84894156	-1.8358428e-17	0.23595095
3.600303709407411e-10	1.3998284e-07	4.069116e-08	0.81487685	-1.8818476e-17	0.20554233
3.625488161710511e-10	1.0528343e-07	8.6369944e-08	0.78150606	-1.9201215e-17	0.19903967
3.6501810826122226e-10	5.356352e-08	1.113081e-07	0.75136316	-1.9455894e-17	0.20256594
3.6753649717673856e-10	4.411501e-09	1.12065294e-07	0.7251002	-1.9621209e-17	0.20777556
3.700051006120326e-10	-2.9892856e-08	9.4155915e-08	0.7047483	-1.9718297e-17	0.21068797
3.725231883868831e-10	-4.7637627e-08	6.6765104e-08	0.68955636	-1.9772816e-17	0.21170162
3.7504133732529205e-10	-5.2378343e-08	3.911092e-08	0.6795687	-1.9799592e-17	0.21179804
3.7751007033066325e-10	-4.852651e-08	1.8041064e-08	0.6743885	-1.9811187e-17	0.21128109
3.800281800324001e-10	-4.0082107e-08	3.2921648e-09	0.67295283	-1.9816384e-17	0.21084067
3.8254631704343825e-10	-3.1045115e-08	-5.79421e-09	0.6746049	-1.9820037e-17	0.21114378
3.850151079084831e-10	-2.3061615e-08	-8.9546885e-09	0.67876303	-1.9824996e-17	0.21150522
3.875333292094694e-10	-1.6543128e-08	-1.0008181e-08	0.68520033	-1.9832977e-17	0.21078625
3.90002154340051e-10	-1.1357969e-08	-1.1061674e-08	0.6932267	-1.9844316e-17	0.21171267
3.92520363278728e-10	-7.226302e-09	-1.1325047e-08	0.70273453	-1.9859564e-17	0.21073498
3.950385628812608e-10	-4.1810493e-09	-1.1193361e-08	0.7132395	-1.9878293e-17	0.2119423
3.97507401337403e-10	-1.9094557e-09	-1.0271554e-08	0.7242609	-1.9899616e-17	0.21217935
4.000255990085442e-10	9.876494e-10	-8.691315e-09	0.73602337	-1.9923848e-17	0.21196128
4.0254379929368113e-10	1.5802392e-09	-6.847703e-09	0.74809754	-1.994994e-17	0.21199699
4.050126285390174e-10	2.0082205e-09	-4.8065605e-09	0.7600298	-1.997666e-17	0.21319728
4.075308142429557e-10	2.5678886e-09	-3.5884598e-09	0.7720911	-2.0004326e-17	0.21428418
4.1004899505408186e-10	3.5226164e-09	-2.534967e-09	0.7838381	-2.0031605e-17	0.21543178
4.125177951357142e-10	3.9505976e-09	-1.3662484e-09	0.79485303	-2.0057148e-17	0.2165953
4.1503597321050104e-10	4.115206e-09	1.0761264e-09	0.80537915	-2.0081181e-17	0.21769944
4.175047568666005e-10	3.6872247e-09	3.3106833e-09	0.81482637	-2.010209e-17	0.21860276
4.2002290149843143e-10	1.5802392e-09	6.3744543e-09	0.82343173	-2.0120275e-17	0.22119157
4.225410489566481e-10	-3.950598e-10	7.38268e-09	0.8309212	-2.0135136e-17	0.22270167
4.2500978700672273e-10	-1.218101e-09	6.288035e-09	0.83718634	-2.0146596e-17	0.22336699
4.275279213640127e-10	-1.876534e-09	5.9588183e-09	0.8425582	-2.0155407e-17	0.22504415
4.3004601602699706e-10	-2.2880546e-09	5.3991505e-09	0.8470339	-2.0161657e-17	0.22558069
4.325147420681949e-10	-2.2057505e-09	5.5966805e-09	0.8507013	-2.0165643e-17	0.22601943
4.350328401686985e-10	-2.633732e-09	4.5431876e-09	0.85385585	-2.0167861e-17	0.22717535
4.3750155453351986e-10	-3.1275567e-09	4.1481276e-09	0.85650104	-2.0168523e-17	0.22751677
4.400196465676839e-10	-2.8312617e-09	3.0617133e-09	0.8588497	-2.0167939e-17	0.22723147
4.425377368565544e-10	-1.7119257e-09	2.897105e-09	0.86093044	-2.0166326e-17	0.22815222
4.450064550963352e-10	-1.316866e-09	3.753068e-09	0.86277354	-2.0163945e-17	0.22888052
4.475245457425741e-10	-1.777769e-09	3.8847547e-09	0.8645019	-2.0160842e-17	0.22926508
4.5004261893166575e-10	-2.1728288e-09	3.7201462e-09	0.8661148	-2.0157166e-17	0.22935843
4.5251133870314845e-10	-2.4691236e-09	2.897105e-09	0.8676125	-2.0153073e-17	0.22924094
4.5502943401996674e-10	-2.534967e-09	2.436202e-09	0.86907774	-2.0148447e-17	0.22887553
4.5754751750087096e-10	-2.633732e-09	1.9094557e-09	0.870498	-2.014337e-17	0.22827972
4.600162301391564e-10	-1.5143958e-09	1.8436124e-09	0.8718617	-2.0137962e-17	0.2274811
4.6253431655462526e-10	-8.888845e-10	1.777769e-09	0.8732367	-2.0131983e-17	0.22645229
4.6500304354076837e-10	-1.2839443e-09	2.7654186e-09	0.8745805	-2.0125635e-17	0.22522625
4.675211427311938e-10	-1.5802392e-09	2.633732e-09	0.87595797	-2.0118606e-17	0.22374447
4.700392367140255e-10	-1.4814742e-09	2.2386721e-09	0.87735313	-2.011095e-17	0.2228166
4.725079703100339e-10	-6.58433e-10	2.0411421e-09	0.8787491	-2.0102745e-17	0.22239542
4.750260850102308e-10	-1.316866e-09	1.9094557e-09	0.8802135	-2.0093547e-17	0.22168984
4.775441747794033e-10	-1.7119257e-09	1.9752988e-09	0.88173145	-2.0083365e-17	0.2206699
4.800128998401569e-10	-1.316866e-09	1.1193361e-09	0.8832858	-2.0072246e-17	0.21932116
4.825310020631058e-10	-4.938247e-10	1.7119257e-09	0.8849548	-2.0059517e-17	0.21844578
4.850491126881553e-10	-2.9629485e-10	1.7119257e-09	0.8867273	-2.004509e-17	0.21823114
4.875178616469378e-10	-4.2798143e-10	1.7119257e-09	0.888587	-2.0028923e-17	0.21755783
4.900359718934249e-10	-7.2427625e-10	1.0534927e-09	0.89063495	-2.0009871e-17	0.2162786
4.925047024263027e-10	-3.292165e-10	6.58433e-10	0.89282167	-1.9988042e-17	0.21544711
4.950228269580463e-10	4.609031e-10	1.0534927e-09	0.8952728	-1.99617e-17	0.21543066
4.975409477433344e-10	7.571979e-10	1.2510226e-09	0.8979932	-1.993005e-17	0.21441476
5.000097020283699e-10	6.255113e-10	1.316866e-09	0.9009748	-1.989228e-17	0.21379928
5.025278344861468e-10	1.1193361e-09	1.8436124e-09	0.9043988	-1.9844639e-17	0.21381558
5.050459801126581e-10	1.3168659e-10	2.633732e-09	0.9082749	-1.9784617e-17	0.21289197
5.075147462488693e-10	-2.6337318e-10	3.094635e-09	0.9125658	-1.9709391e-17	0.21326827
5.100329064146911e-10	-5.2674637e-10	3.0287917e-09	0.91744846	-1.9609605e-17	0.21328373
5.125016869619357e-10	-8.888845e-10	3.1604783e-09	0.9226084	-1.9480365e-17	0.21230723
5.150198720784293e-10	-2.3703588e-09	3.2921648e-09	0.92781216	-1.9303755e-17	0.21253482
5.175380505131044e-10	-4.510266e-09	3.1604783e-09	0.9318111	-1.9065264e-17	0.2118641
5.200068687201707e-10	-7.226302e-09	1.7119257e-09	0.9320962	-1.8758969e-17	0.21031085
5.225250904926885e-10	-9.160448e-09	-1.5802392e-09	0.92402846	-1.8399819e-17	0.21093492
5.250433259053808e-10	-9.3497485e-09	-4.7407176e-09	0.9023498	-1.8123737e-17	0.2256702
5.27512191755921e-10	-8.888845e-09	-1.0008181e-08	0.87032735	-1.814659e-17	0.25505626
5.300304240451245e-10	-6.847703e-09	-1.5209801e-08	0.83606505	-1.8529453e-17	0.22087893
5.325487161725601e-10	-1.316866e-09	-1.7119257e-08	0.8021085	-1.8978083e-17	0.20073123
5.350178745468496e-10	5.432072e-09	-1.5440254e-08	0.7700961	-1.9306854e-17	0.19952351
5.375365944574014e-10	1.0880605e-08	-1.2049323e-08	0.74084127	-1.9527805e-17	0.20453148
5.400053400716213e-10	1.4090466e-08	-7.506136e-09	0.71702576	-1.9662882e-17	0.20837024
5.42523335544012e-10	1.4683056e-08	-3.2921648e-09	0.6983771	-1.9743142e-17	0.2110681
5.45041446990313e-10	1.297113e-08	6.58433e-10	0.6851917	-1.9785396e-17	0.21092467
5.475102008836646e-10	1.0074024e-08	3.4238514e-09	0.6771856	-1.9805002e-17	0.21172203
5.500283037567925e-10	8.263334e-09	3.6872247e-09	0.6734407	-1.98136e-17	0.2110314
5.525464010916763e-10	7.1769195e-09	5.6625233e-09	0.67324466	-1.9817744e-17	0.21088368
5.550151778765592e-10	5.99174e-09	5.79421e-09	0.6758507	-1.982159e-17	0.21132344
5.57533357982407e-10	5.086395e-09	4.7407176e-09	0.680956	-1.9827607e-17	0.21142799
5.600021759277123e-10	4.855943e-09	4.872404e-09	0.687957	-1.9836701e-17	0.21079282
5.625203561453126e-10	3.3909298e-09	4.4773443e-09	0.69667935	-1.984964e-17	0.21175861
5.650385735563408e-10	3.7201462e-09	4.0822843e-09	0.706598	-1.9866248e-17	0.21159123
5.675073978760806e-10	3.571999e-09	4.609031e-09	0.7171912	-1.9885763e-17	0.21131633
5.700255993362448e-10	2.1069855e-09	4.4773443e-09	0.7286508	-1.9908502e-17	0.21227583
5.725437965875857e-10	2.633732e-09	3.4238514e-09	0.74055624	-1.9933516e-17	0.21274523
5.750126090158051e-10	2.8641833e-09	3.8847547e-09	0.752453	-1.9959599e-17	0.21295796
5.775308010561271e-10	2.534967e-09	4.3785793e-09	0.76460665	-1.9987094e-17	0.21316995
5.800489815585938e-10	2.534967e-09	5.037012e-09	0.7765732	-2.0014714e-17	0.21356179
5.825177672082501e-10	2.897105e-09	4.1975103e-09	0.7879266	-2.0041109e-17	0.21527334
5.850359298103793e-10	2.99587e-09	3.571999e-09	0.79892075	-2.00665e-17	0.21703114
5.875047216920131e-10	2.5678886e-09	3.551423e-09	0.80893594	-2.0089147e-17	0.21872944
5.900228593487614e-10	1.9423774e-09	3.1522478e-09	0.81820256	-2.0109341e-17	0.22002685
5.925409971399493e-10	2.1399071e-09	2.3209763e-09	0.82639134	-2.0126272e-17	0.22095373
5.950097474329322e-10	3.2592433e-09	1.9094557e-09	0.8333289	-2.0139664e-17	0.22334439
5.975278629751233e-10	3.9505976e-09	1.7283865e-09	0.8393286	-2.0150245e-17	0.22359346
6.000459656872731e-10	4.0493626e-09	2.3868196e-09	0.8443446	-2.0158046e-17	0.22547993
6.02514678754201e-10	4.016441e-09	2.8312617e-09	0.8484473	-2.0163341e-17	0.225357
6.05032761472336e-10	4.3785793e-09	3.8189114e-09	0.851954	-2.0166683e-17	0.22657835
6.075014682467264e-10	3.6872247e-09	3.6872247e-09	0.8548667	-2.0168261e-17	0.2273875
6.100195444811006e-10	3.1275567e-09	4.4444226e-09	0.85742384	-2.0168438e-17	0.22747236
6.125376287293208e-10	2.6995752e-09	3.6213814e-09	0.85966253	-2.016744e-17	0.22755614
6.150063313941336e-10	2.9629483e-09	3.851833e-09	0.8616229	-2.0165542e-17	0.22844982
6.17524410559888e-10	3.1934e-09	4.2468926e-09	0.8634415	-2.0162847e-17	0.2290675
6.200424759340995e-10	2.8641833e-09	4.971169e-09	0.8651223	-2.0159516e-17	0.22932276
6.22511183597873e-10	2.5678886e-09	5.234542e-09	0.8666697	-2.0155723e-17	0.229344
6.250292539126489e-10	2.0082205e-09	5.5966805e-09	0.8681719	-2.0151379e-17	0.2291318
6.275473374560989e-10	1.9423774e-09	5.695445e-09	0.86961806	-2.0146581e-17	0.22867684
6.300160454249074e-10	1.876534e-09	4.872404e-09	0.87099826	-2.014145e-17	0.22801302
6.325341264110705e-10	1.4485525e-09	5.79421e-09	0.8723819	-2.0135762e-17	0.22711925
6.350028506160532e-10	9.218062e-10	5.99174e-09	0.873727	-2.0129725e-17	0.22602926
6.375209454174514e-10	3.292165e-10	6.4526433e-09	0.875099	-2.012305e-17	0.22469586
6.400390201551064e-10	-6.5843296e-11	5.8600533e-09	0.8764818	-2.0115793e-17	0.22312255
6.425077264020302e-10	-6.255113e-10	5.79421e-09	0.8778587	-2.010804e-17	0.2226933
6.450258213929015e-10	-1.6460824e-10	6.18927e-09	0.8792962	-2.0099377e-17	0.22216372
6.475439090999272e-10	-4.938247e-10	6.7818595e-09	0.88077915	-2.0089828e-17	0.22134422
6.500126252929347e-10	-6.58433e-10	6.913546e-09	0.88229036	-2.0079449e-17	0.22022067
6.525307151679348e-10	-1.8436124e-09	7.242763e-09	0.88390476	-2.0067622e-17	0.21869811
6.550488064416979e-10	-2.5678886e-09	7.045233e-09	0.8856103	-2.0054293e-17	0.21841443
6.575175278656644e-10	-3.555538e-09	7.4402924e-09	0.88739055	-2.0039448e-17	0.21804468
6.600356221479251e-10	-4.3456576e-09	7.5719795e-09	0.88934034	-2.0022069e-17	0.21715346
6.625043568741141e-10	-5.8271317e-09	7.111076e-09	0.89141047	-2.0002308e-17	0.2156444
6.650224625409655e-10	-6.551408e-09	7.1769195e-09	0.89371806	-1.9978644e-17	0.21553715
6.675405697184097e-10	-8.625472e-09	7.703666e-09	0.89626485	-1.9950461e-17	0.21518403
6.700093027232281e-10	-1.0798301e-08	7.143998e-09	0.89904195	-1.9917141e-17	0.21373776
6.725274314324525e-10	-1.3728328e-08	7.308606e-09	0.9022177	-1.9875532e-17	0.2140096
6.750455485176237e-10	-1.7152178e-08	6.1234267e-09	0.90580475	-1.9823655e-17	0.21329838
6.775142965975821e-10	-2.0444343e-08	4.213971e-09	0.9097823	-1.9759328e-17	0.21337044
6.800324295380878e-10	-2.475708e-08	1.316866e-09	0.9143506	-1.9674898e-17	0.21249837
6.825012059158321e-10	-3.035376e-08	-3.6872247e-09	0.9193015	-1.9566623e-17	0.21336032
6.850193184206785e-10	-3.6477186e-08	-1.1851793e-08	0.924619	-1.9419871e-17	0.2131305
6.875374449017152e-10	-4.1744652e-08	-2.475708e-08	0.92956007	-1.9222018e-17	0.21167807
6.900062171260729e-10	-4.416439e-08	-4.213971e-08	0.93252194	-1.8961903e-17	0.21132486
6.925243751682723e-10	-4.055947e-08	-6.5579925e-08	0.93036205	-1.86248e-17	0.2095377
6.950425442789882e-10	-2.5378476e-08	-8.770327e-08	0.9175995	-1.827507e-17	0.21417484
6.975113637037511e-10	6.0246617e-09	-1.021888e-07	0.89137524	-1.8087082e-17	0.23837247
7.000295536722224e-10	4.2008022e-08	-1.1035337e-07	0.8573419	-1.8260555e-17	0.247564
7.025477566714672e-10	8.138232e-08	-1.04625e-07	0.8232201	-1.8706829e-17	0.21005431
7.050166986104472e-10	1.1120933e-07	-6.590914e-08	0.7901808	-1.9112521e-17	0.19897936
7.075353396622647e-10	1.17382136e-07	-1.0534928e-08	0.7585568	-1.9402006e-17	0.2005817
7.100044437251767e-10	1.0126699e-07	3.4633576e-08	0.73154503	-1.9584944e-17	0.20560424
7.125223651581543e-10	7.308606e-08	6.070752e-08	0.7093214	-1.9698788e-17	0.21042702
7.150403937629542e-10	4.3818716e-08	6.702847e-08	0.69278955	-1.9762592e-17	0.21190716
7.17509115509185e-10	1.9226242e-08	6.281451e-08	0.6817277	-1.9794402e-17	0.21163948
7.200271755903027e-10	2.0740638e-09	5.1357773e-08	0.6752982	-1.9809144e-17	0.21146803
7.225452217036332e-10	-7.5719795e-09	4.0296097e-08	0.6729949	-1.9815406e-17	0.21087798
7.250139213347799e-10	-1.1884715e-08	2.9497798e-08	0.6738966	-1.9819016e-17	0.21101403
7.275320184445217e-10	-1.3448494e-08	2.2518408e-08	0.6775056	-1.9823526e-17	0.21146774
7.300007888102577e-10	-1.3934088e-08	1.6855884e-08	0.6833022	-1.9830524e-17	0.21115202
7.325189416877597e-10	-1.36213325e-08	1.158842e-08	0.6910808	-1.9841136e-17	0.21145867
7.350370907475178e-10	-1.178595e-08	7.5719795e-09	0.7002957	-1.9855481e-17	0.21131805
7.375058506584299e-10	-1.0008181e-08	4.4773443e-09	0.71037126	-1.9873008e-17	0.2120035
7.400240201405583e-10	-8.625472e-09	2.897105e-09	0.7214439	-1.9894025e-17	0.21169679
7.425421663615625e-10	-6.2221917e-09	1.4485525e-09	0.7330964	-1.9917697e-17	0.21153304
7.450109461550411e-10	-4.6419526e-09	7.2427625e-10	0.744876	-1.9942876e-17	0.21263681
7.475290816322466e-10	-3.4896948e-09	7.901196e-10	0.75704134	-1.9969894e-17	0.21343462
7.500472222861463e-10	-3.2263217e-09	7.901196e-10	0.76914835	-1.999753e-17	0.21418549
7.525159608321319e-10	-2.0082205e-09	6.4197214e-10	0.78076285	-2.0024451e-17	0.21493714
7.550340800828644e-10	-3.292165e-10	2.6337318e-10	0.7921489	-2.0050904e-17	0.21576667
7.575028144353249e-10	2.0082205e-09	4.053478e-10	0.8026658	-2.0075045e-17	0.21653344
7.600209171395014e-10	1.7448474e-09	3.0905198e-09	0.8125469	-2.0097119e-17	0.21893124
7.625390002798387e-10	2.5020452e-09	3.1440175e-09	0.8214179	-2.011611e-17	0.22097711
7.650076953626486e-10	3.8189114e-09	3.1604783e-09	0.8290426	-2.0131511e-17	0.22188574
7.675257553914414e-10	4.872404e-09	5.2016205e-09	0.8357119	-2.0144002e-17	0.22350849
7.700438136659038e-10	5.4979155e-09	6.4032606e-09	0.8413259	-2.0153493e-17	0.22457811
7.725124786436687e-10	5.464994e-09	7.901195e-09	0.845924	-2.0160226e-17	0.22562198
7.750305093916155e-10	4.5431876e-09	8.888845e-09	0.8498401	-2.0164825e-17	0.22555137
7.775485237886233e-10	3.2263217e-09	9.218062e-09	0.8531271	-2.0167474e-17	0.2269678
7.800171626645971e-10	2.1399071e-09	9.283905e-09	0.8558727	-2.0168481e-17	0.22749959
7.825351735457579e-10	1.7119257e-09	9.250983e-09	0.85829943	-2.0168185e-17	0.22734918
7.850038183355716e-10	8.888845e-10	8.9546885e-09	0.86039954	-2.0166842e-17	0.22792204
7.875218162419401e-10	3.6213813e-10	8.625472e-09	0.86232626	-2.016461e-17	0.22872995
7.900398317433511e-10	-6.5843296e-11	7.901195e-09	0.8640883	-2.016166e-17	0.22920237
7.925084633298577e-10	-6.5843296e-11	8.032882e-09	0.8656954	-2.0158195e-17	0.22934584
7.950264668926932e-10	-4.609031e-10	8.065804e-09	0.8672428	-2.0154145e-17	0.22929391
7.975444785553335e-10	-9.876494e-10	7.967039e-09	0.8687216	-2.0149627e-17	0.22898847
8.000131141058908e-10	-1.7448474e-09	7.4402924e-09	0.8701238	-2.0144761e-17	0.2284606
8.025311259654937e-10	-1.9094557e-09	7.4402924e-09	0.871521	-2.0139361e-17	0.22770272
8.050491495575695e-10	-2.2715938e-09	6.650173e-09	0.87289894	-2.0133502e-17	0.22672689
8.075177982667746e-10	-2.633732e-09	6.716016e-09	0.8742426	-2.012728e-17	0.2255551
8.100358187553095e-10	-2.436202e-09	6.847703e-09	0.87561727	-2.0120394e-17	0.22413337
8.125044659433409e-10	-3.7859897e-09	7.703666e-09	0.8769795	-2.0113052e-17	0.22288887
8.150224827340024e-10	-3.753068e-09	7.111076e-09	0.87839484	-2.010488e-17	0.22252592
8.175405025440598e-10	-4.2798143e-09	6.4526433e-09	0.879848	-2.0095898e-17	0.22189142
8.200091503947185e-10	-4.6748743e-09	6.3209566e-09	0.88132143	-2.0086177e-17	0.2209744
8.225271927904002e-10	-5.3991505e-09	5.8600533e-09	0.88288784	-2.007516e-17	0.21969616
8.25045215157229e-10	-6.2221917e-09	6.18927e-09	0.88453436	-2.0062806e-17	0.21843697
8.275138824724867e-10	-7.3744495e-09	5.530837e-09	0.88624406	-2.004912e-17	0.21833077
8.300319173037342e-10	-8.098725e-09	4.938247e-09	0.88810635	-2.0033203e-17	0.21777752
8.325005800980406e-10	-8.7242364e-09	3.6872247e-09	0.890073	-2.001523e-17	0.2166868
8.350186166382218e-10	-9.283905e-09	2.9629483e-09	0.8922528	-1.9993872e-17	0.21533304
8.375366591524271e-10	-9.876494e-09	2.1728288e-09	0.8946449	-1.9968645e-17	0.21551485
8.400053482286847e-10	-1.1818872e-08	1.6460824e-09	0.89723927	-1.9939084e-17	0.21480379
8.425233912716985e-10	-1.3695406e-08	1.3168659e-10	0.9001916	-1.9902521e-17	0.21355109
8.45041450408595e-10	-1.5539019e-08	-2.1728288e-09	0.903514	-1.9857409e-17	0.21398266
8.475101365196627e-10	-1.7119257e-08	-5.99174e-09	0.90719414	-1.9802049e-17	0.21248113
8.500282193086958e-10	-1.8699497e-08	-1.0847684e-08	0.9114378	-1.9730163e-17	0.21346784
8.525463008944216e-10	-1.9851754e-08	-1.6724197e-08	0.91619873	-1.963685e-17	0.21286856
8.550150258940193e-10	-2.0641874e-08	-2.35719e-08	0.92128944	-1.951646e-17	0.21269046
8.575331425839118e-10	-2.034558e-08	-3.476526e-08	0.92657727	-1.9352438e-17	0.21306145
8.600019009222098e-10	-1.5506096e-08	-4.9250787e-08	0.9309733	-1.9135884e-17	0.21202163
8.625200332145761e-10	-4.9217865e-09	-6.702847e-08	0.9325731	-1.8842721e-17	0.21067998
8.650381978555043e-10	1.4905277e-08	-8.243581e-08	0.9271305	-1.8487988e-17	0.21037364