# t (s)	mx ()	my ()	mz ()	E_total (J)	MaxAngle (rad)
0	1.0123407e-09	4.115206e-10	0.97953594	-2.0725771e-17	0.2662727
2.511698799083645e-12	5.5966803e-10	5.925897e-10	0.9685908	-2.0672332e-17	0.23999575
5.0400650029856275e-12	1.358018e-09	7.901196e-10	0.9573279	-2.0547917e-17	0.2285285
7.515821944758619e-12	2.4032802e-09	2.3703588e-09	0.9478186	-2.0364264e-17	0.2264236
1.0039336357197431e-11	2.4691236e-09	6.5184866e-09	0.9408938	-2.0130883e-17	0.22535218
1.2511594003406562e-11	-2.9629485e-10	1.12098215e-08	0.93674535	-1.9868064e-17	0.22265093
1.5032155312539362e-11	-5.9258967e-09	1.619745e-08	0.9343137	-1.9558722e-17	0.22100566
1.7502696411913886e-11	-1.5242723e-08	2.0543109e-08	0.93211436	-1.9196119e-17	0.21858518
2.0022242729700548e-11	-2.9596562e-08	2.1859975e-08	0.92714983	-1.8748068e-17	0.21621417
2.2541458282199072e-11	-4.6008005e-08	1.777769e-08	0.9148665	-1.8241888e-17	0.21845073
2.5011121274957195e-11	-6.0723984e-08	4.609031e-09	0.8924102	-1.7789255e-17	0.2420332
2.7530028627033517e-11	-7.3744495e-08	-1.1720107e-08	0.8630454	-1.7608169e-17	0.27254727
3.004879548107733e-11	-8.902014e-08	-3.7003932e-08	0.8319142	-1.7920059e-17	0.22292663
3.25181162213316e-11	-7.9143646e-08	-7.3810334e-08	0.798516	-1.843214e-17	0.19828312
3.503689825382055e-11	-4.019733e-08	-9.988428e-08	0.7625184	-1.88786e-17	0.19605434
3.7506420924659657e-11	5.2510027e-09	-1.0225464e-07	0.7283223	-1.9192139e-17	0.20143253
4.0025102261333736e-11	4.0888686e-08	-8.6913154e-08	0.6973674	-1.94082e-17	0.20732288
4.25432366912962e-11	5.998324e-08	-6.18927e-08	0.67209566	-1.9544658e-17	0.21113837
4.5012070779511746e-11	6.551408e-08	-3.4238514e-08	0.6531797	-1.9622622e-17	0.21149245
4.753028916364277e-11	6.0444144e-08	-1.0929988e-08	0.6396671	-1.9664664e-17	0.21162018
5.0048466488743275e-11	4.994214e-08	5.0040905e-09	0.6315809	-1.9684462e-17	0.21070278
5.251725835466778e-11	3.8670592e-08	1.2905287e-08	0.6279711	-1.9692906e-17	0.21108206
5.503544743409279e-11	2.8362e-08	1.6855884e-08	0.6278565	-1.9697295e-17	0.21112216
5.7504294884854164e-11	2.077356e-08	1.7119257e-08	0.6307588	-1.9701526e-17	0.21090873
6.00225601298495e-11	1.5353834e-08	1.7250944e-08	0.6363386	-1.9708117e-17	0.21029599
6.254082191497946e-11	1.1967019e-08	1.7119257e-08	0.64404094	-1.9718194e-17	0.21140611
6.500973390188199e-11	8.436173e-09	1.6460824e-08	0.6531841	-1.9731864e-17	0.21025403
6.752800724392041e-11	5.152238e-09	1.580239e-08	0.663769	-1.974965e-17	0.21149983
7.004629342648616e-11	3.1604783e-09	1.3300346e-08	0.67535007	-1.9771033e-17	0.2114774
7.2515192411734e-11	1.736617e-09	1.1720107e-08	0.6874441	-1.9795064e-17	0.21070819
7.503345670579226e-11	6.748938e-10	1.1193361e-08	0.70031846	-1.982218e-17	0.21157593
7.750235332309897e-11	-4.3621184e-10	1.0929988e-08	0.71327233	-1.9850781e-17	0.21223226
8.002061442604941e-11	-6.58433e-10	9.086375e-09	0.726639	-1.9881423e-17	0.212693
8.253887546557169e-11	-1.5143958e-09	8.823002e-09	0.7399881	-1.991292e-17	0.21316348
8.500774329118431e-11	-2.0082205e-09	7.5719795e-09	0.7528932	-1.9943961e-17	0.2136824
8.752597760128757e-11	-1.5802392e-09	5.9258967e-09	0.76569456	-1.9975045e-17	0.21439655
9.004418465316926e-11	-1.2510226e-09	4.8065605e-09	0.7779376	-2.0004746e-17	0.21527445
9.251303060088283e-11	6.58433e-10	4.1810493e-09	0.78919905	-2.0031717e-17	0.2167899
9.50312278859708e-11	1.1522577e-09	3.8682937e-09	0.7997228	-2.0056288e-17	0.21926361
9.750003288757385e-11	2.1399071e-09	2.6789992e-09	0.80891687	-2.0076972e-17	0.22162259
1.0001821693815443e-10	3.0699436e-09	1.8724187e-09	0.817017	-2.0094393e-17	0.22317022
1.0253638338297386e-10	4.0493626e-09	7.8188916e-10	0.823777	-2.0108258e-17	0.22517902
1.0500515437665398e-10	5.0040905e-09	-9.3003655e-10	0.82914716	-2.011882e-17	0.22682418
1.075232921013416e-10	6.18927e-09	-1.1522577e-09	0.8334678	-2.0127026e-17	0.22830212
1.1004142677281883e-10	6.7324772e-09	-5.925897e-10	0.8367972	-2.013315e-17	0.22824918
1.1251016116101372e-10	7.19338e-09	-4.609031e-10	0.8392855	-2.0137527e-17	0.22970186
1.1502827720640857e-10	7.1604584e-09	-6.5843296e-11	0.84120995	-2.0140687e-17	0.23062545
1.1754637463810254e-10	7.7695095e-09	7.571979e-10	0.8426666	-2.0142834e-17	0.2311266
1.2001510234969409e-10	7.1604584e-09	1.6131608e-09	0.8437574	-2.0144194e-17	0.23137288
1.2253320314392757e-10	6.5349473e-09	2.4691236e-09	0.84461623	-2.0145046e-17	0.23148957
1.2500193706229736e-10	5.464994e-09	2.7654186e-09	0.84527487	-2.01455e-17	0.23153399
1.2752002348085274e-10	4.4279616e-09	2.6666536e-09	0.8458079	-2.0145716e-17	0.2315449
1.300381177421204e-10	4.411501e-09	2.4691236e-09	0.8462366	-2.0145754e-17	0.23153476
1.325068582127727e-10	4.1975103e-09	2.436202e-09	0.84658015	-2.0145691e-17	0.23151815
1.350249575647838e-10	4.0822843e-09	2.6008102e-09	0.846871	-2.0145557e-17	0.2315571
1.3754304947720416e-10	3.9012154e-09	3.3086256e-09	0.84711486	-2.014539e-17	0.23174948
1.4001176925259208e-10	3.670764e-09	3.555538e-09	0.84731764	-2.0145205e-17	0.23190513
1.4252986778203912e-10	3.0617133e-09	3.5884598e-09	0.847495	-2.0145016e-17	0.23203866
1.4504796706051915e-10	2.9629483e-09	3.2921648e-09	0.8476481	-2.0144829e-17	0.23215267
1.4751669060686621e-10	3.1604783e-09	2.5678886e-09	0.84777844	-2.0144652e-17	0.23224851
1.5003477928002734e-10	3.2263217e-09	2.732497e-09	0.84789467	-2.0144485e-17	0.23233448
1.5250350135391534e-10	2.2057505e-09	3.2263217e-09	0.84799474	-2.0144334e-17	0.23240693
1.5502159257093475e-10	2.2880546e-09	3.4896948e-09	0.8480845	-2.014419e-17	0.2324755
1.5753968815374752e-10	1.4485525e-09	2.9300267e-09	0.84816366	-2.014406e-17	0.23253708
1.6000840885371823e-10	1.7283865e-09	2.2386721e-09	0.8482323	-2.0143944e-17	0.23259269
1.62526511412626e-10	2.0082205e-09	2.0411421e-09	0.8482945	-2.0143835e-17	0.23264232
1.6504460170034657e-10	2.4032802e-09	2.1399071e-09	0.8483495	-2.014374e-17	0.2326855
1.6751331348653628e-10	3.1275567e-09	2.436202e-09	0.84839743	-2.0143651e-17	0.23272374
1.7003141165250584e-10	2.6666536e-09	2.9300267e-09	0.8484409	-2.0143573e-17	0.23275682
1.7250012958170832e-10	2.4032802e-09	2.9300267e-09	0.8484788	-2.0143504e-17	0.23278601
1.7501821840915763e-10	2.419741e-09	2.5678886e-09	0.8485132	-2.0143441e-17	0.23281418
1.7753630819619884e-10	2.2386721e-09	2.5020452e-09	0.8485439	-2.0143383e-17	0.23283665
1.8000502985128137e-10	2.2386721e-09	2.633732e-09	0.84857064	-2.0143334e-17	0.23285784
1.8252311662206745e-10	1.9917596e-09	2.3045155e-09	0.8485951	-2.0143286e-17	0.23287748
1.8504120560442282e-10	2.3045155e-09	1.9752988e-09	0.8486168	-2.0143246e-17	0.23289348
1.875099274118567e-10	2.7654186e-09	2.6008102e-09	0.84863573	-2.014321e-17	0.23290846
1.9002801848195308e-10	2.1069855e-09	2.732497e-09	0.84865296	-2.0143176e-17	0.23292112
1.9254610748543537e-10	1.6296217e-09	2.6995752e-09	0.8486684	-2.014315e-17	0.23293401
1.950148322205655e-10	2.1069855e-09	1.9423774e-09	0.84868187	-2.014312e-17	0.2329441
1.9753291669031646e-10	2.1728288e-09	2.6008102e-09	0.84869415	-2.0143099e-17	0.2329521
2.000016429407635e-10	1.7448474e-09	3.2921648e-09	0.8487049	-2.014308e-17	0.23296036
2.0251974254666186e-10	2.0411421e-09	3.358008e-09	0.84871465	-2.014306e-17	0.23296914
2.0503782253551794e-10	1.1851794e-09	3.1604783e-09	0.8487234	-2.0143042e-17	0.23297483
2.0750653152616849e-10	1.0534927e-09	2.3045155e-09	0.848731	-2.0143027e-17	0.23298076
2.1002462819969675e-10	1.1193361e-09	1.7119257e-09	0.848738	-2.0143014e-17	0.23298618
2.125426932173867e-10	2.7654186e-09	1.1193361e-09	0.8487443	-2.0143001e-17	0.23299108
2.1501142526654203e-10	3.1440175e-09	1.9752988e-09	0.8487496	-2.0142991e-17	0.23299547
2.1752952053173184e-10	2.353898e-09	2.5020452e-09	0.8487546	-2.0142981e-17	0.23299806
2.200476151516159e-10	1.876534e-09	2.0411421e-09	0.84875906	-2.0142975e-17	0.2330027
2.2251632140240942e-10	1.4156308e-09	2.0082205e-09	0.84876287	-2.0142966e-17	0.23300529
2.2503441386163789e-10	1.679004e-09	1.8436124e-09	0.84876645	-2.014296e-17	0.23300683
2.2750311631999477e-10	2.2057505e-09	2.1399071e-09	0.8487695	-2.0142953e-17	0.23300993
2.3002122099373173e-10	2.8806442e-09	2.1069855e-09	0.8487724	-2.0142948e-17	0.23301226
2.3253931370627513e-10	3.1275567e-09	2.7654186e-09	0.8487748	-2.0142941e-17	0.23301381
2.350080230715667e-10	3.2263217e-09	3.6213814e-09	0.8487771	-2.0142938e-17	0.23301613
2.3752610384629483e-10	3.7201462e-09	3.4238514e-09	0.84877896	-2.0142933e-17	0.23301664
2.4004419786355727e-10	3.3415473e-09	3.3909298e-09	0.84878075	-2.014293e-17	0.23301922
2.425129042727262e-10	3.094635e-09	3.2921648e-09	0.8487824	-2.0142928e-17	0.23302001
2.4503099325686877e-10	3.0123308e-09	3.9505976e-09	0.84878385	-2.0142927e-17	0.23302001
2.4754909525438015e-10	2.3703588e-09	3.9505976e-09	0.84878504	-2.0142925e-17	0.23302233
2.5001781948336474e-10	2.6008102e-09	3.456773e-09	0.8487862	-2.0142918e-17	0.23302259
2.5253589177069635e-10	2.1728288e-09	3.6872247e-09	0.8487872	-2.014292e-17	0.23302335
2.5500460994843336e-10	2.2057505e-09	3.7859897e-09	0.8487881	-2.0142918e-17	0.23302464
2.5752270657747087e-10	1.6460824e-09	3.4238514e-09	0.848789	-2.0142917e-17	0.23302387
2.6004079207692057e-10	2.0411421e-09	3.094635e-09	0.8487897	-2.0142915e-17	0.23302567
2.625095016789147e-10	1.9094557e-09	2.6666536e-09	0.8487903	-2.0142915e-17	0.23302619
2.650275875590482e-10	2.5020452e-09	2.6995752e-09	0.8487908	-2.0142912e-17	0.23302516
2.675456760780936e-10	2.5514277e-09	2.8312617e-09	0.8487914	-2.0142908e-17	0.23302697
2.7001438979074734e-10	2.0411421e-09	2.4032802e-09	0.84879196	-2.0142912e-17	0.23302671
2.725324753800072e-10	1.2839443e-09	2.1069855e-09	0.8487923	-2.014291e-17	0.23302697
2.750011917235432e-10	1.777769e-09	7.901196e-10	0.8487926	-2.0142908e-17	0.23302749
2.775192919888486e-10	2.436202e-09	8.5596286e-10	0.848793	-2.0142908e-17	0.23302749
2.8003738140614144e-10	2.2880546e-09	1.3497876e-09	0.84879327	-2.0142907e-17	0.233028
2.825060962685418e-10	2.7654186e-09	1.1851794e-09	0.84879357	-2.0142905e-17	0.23302825
2.850241821161487e-10	2.9629483e-09	1.5143958e-09	0.8487938	-2.0142905e-17	0.23302749
2.87542268949227e-10	2.6831144e-09	1.3827093e-09	0.848794	-2.0142908e-17	0.23302929
2.900109860675624e-10	2.6666536e-09	1.2510226e-09	0.84879416	-2.0142905e-17	0.23302929
2.9252907108665354e-10	2.8312617e-09	1.6460824e-09	0.84879434	-2.0142905e-17	0.2330285
2.950471613695879e-10	3.8024504e-09	1.777769e-09	0.8487945	-2.0142903e-17	0.23302929
2.975158709782738e-10	3.6872247e-09	2.5020452e-09	0.84879464	-2.0142903e-17	0.23302878
3.000339626584477e-10	3.3909298e-09	3.0287917e-09	0.84879476	-2.0142905e-17	0.23302929
3.025026650975085e-10	2.8477225e-09	3.2921648e-09	0.8487949	-2.0142905e-17	0.2330298
3.0502076235279725e-10	2.9464875e-09	2.8641833e-09	0.8487949	-2.0142903e-17	0.2330285
3.0753885608841063e-10	2.9629483e-09	3.3250864e-09	0.84879506	-2.0142902e-17	0.23302954
3.1000755888992433e-10	2.5843494e-09	3.0287917e-09	0.8487951	-2.0142902e-17	0.23303032
3.1252565313707034e-10	2.4691236e-09	2.8312617e-09	0.8487952	-2.0142902e-17	0.23302878
3.150437378790261e-10	1.9752988e-09	3.0287917e-09	0.8487952	-2.0142903e-17	0.23303007
3.175124572987588e-10	2.0411421e-09	2.5020452e-09	0.8487953	-2.0142903e-17	0.23302929
3.200305429230181e-10	2.4691236e-09	1.5473175e-09	0.84879535	-2.0142902e-17	0.23302954
3.225486325645051e-10	2.6995752e-09	1.5802392e-09	0.84879535	-2.0142905e-17	0.23302954
3.2501734562943765e-10	2.6666536e-09	2.9300267e-09	0.84879535	-2.0142902e-17	0.23302904
3.275354389817761e-10	2.4855844e-09	2.633732e-09	0.84879553	-2.0142902e-17	0.23303007
3.3000415016118227e-10	2.2880546e-09	3.094635e-09	0.84879553	-2.0142902e-17	0.23303007
3.3252223806080167e-10	2.3045155e-09	3.3909298e-09	0.84879553	-2.0142902e-17	0.23302904
3.3504032527167094e-10	2.2386721e-09	2.6008102e-09	0.84879553	-2.0142902e-17	0.23303032
3.37509034709229e-10	1.6460824e-09	2.633732e-09	0.8487956	-2.0142902e-17	0.2330298
3.40027119534261e-10	1.6460824e-09	2.2057505e-09	0.8487956	-2.0142902e-17	0.23303007
3.425452213660396e-10	1.4485525e-09	2.3703588e-09	0.84879565	-2.0142903e-17	0.2330298
3.450139353674291e-10	2.0411421e-09	2.2386721e-09	0.84879565	-2.0142902e-17	0.23302929
3.4753202584337615e-10	1.8436124e-09	2.7654186e-09	0.84879565	-2.0142902e-17	0.23303007
3.500007387451673e-10	1.1522577e-09	2.633732e-09	0.84879565	-2.01429e-17	0.2330298
3.525188240063501e-10	2.0246813e-09	2.2715938e-09	0.84879565	-2.01429e-17	0.23302904
3.550369008446801e-10	2.6008102e-09	2.2386721e-09	0.84879565	-2.01429e-17	0.23303007
3.5750560691295247e-10	2.6008102e-09	3.358008e-09	0.84879565	-2.01429e-17	0.23303007
3.600237182356498e-10	2.1728288e-09	3.4896948e-09	0.84879565	-2.01429e-17	0.23302954
3.6254180087745513e-10	1.9094557e-09	3.4896948e-09	0.84879565	-2.01429e-17	0.23303007
3.6501051892783104e-10	1.9423774e-09	2.897105e-09	0.84879565	-2.01429e-17	0.23302954
3.6752858548795294e-10	1.3827093e-09	2.3374371e-09	0.8487957	-2.0142903e-17	0.2330298
3.7004669419031177e-10	2.2715938e-09	1.6460824e-09	0.8487957	-2.01429e-17	0.23302929
3.7251540271420366e-10	2.6008102e-09	1.9423774e-09	0.8487957	-2.01429e-17	0.23302904
3.750334906369123e-10	2.6666536e-09	1.316866e-09	0.8487957	-2.01429e-17	0.23303032
3.7750218713256783e-10	3.654303e-09	2.5678886e-09	0.8487957	-2.01429e-17	0.23303032
3.8002028959211837e-10	3.9835193e-09	2.897105e-09	0.8487957	-2.01429e-17	0.23302904
3.8253835679409624e-10	3.1769392e-09	3.9835193e-09	0.8487957	-2.0142903e-17	0.23303007
3.850070779398442e-10	2.6666536e-09	3.753068e-09	0.8487957	-2.01429e-17	0.23302929
3.8752516892352896e-10	3.2098608e-09	2.6995752e-09	0.8487957	-2.01429e-17	0.2330298
3.9004325876169705e-10	2.5843494e-09	2.3703588e-09	0.8487957	-2.01429e-17	0.23302904
3.925119677968591e-10	3.0287917e-09	2.4691236e-09	0.8487957	-2.01429e-17	0.23302904
3.9503004922467146e-10	2.9135658e-09	3.2921648e-09	0.8487957	-2.01429e-17	0.23303057
3.975481369483353e-10	2.4691236e-09	3.2263217e-09	0.8487957	-2.01429e-17	0.23302929
4.000168598405974e-10	2.6008102e-09	3.2263217e-09	0.8487957	-2.01429e-17	0.23302904
4.0253494962808903e-10	1.876534e-09	2.9629483e-09	0.8487957	-2.01429e-17	0.23303057
4.0500365546258245e-10	2.4691236e-09	2.436202e-09	0.8487957	-2.01429e-17	0.23303032
4.0752174308112707e-10	2.4691236e-09	2.633732e-09	0.8487957	-2.01429e-17	0.23302954
4.1003982303236817e-10	2.1399071e-09	3.1604783e-09	0.8487957	-2.01429e-17	0.23302929
4.125085338049805e-10	2.9464875e-09	3.358008e-09	0.8487957	-2.01429e-17	0.23302878
4.150266134069029e-10	2.633732e-09	4.2468926e-09	0.8487957	-2.0142902e-17	0.23303032
4.1754469651550584e-10	2.0082205e-09	3.456773e-09	0.8487957	-2.01429e-17	0.23302878
4.2001341574931546e-10	1.7942299e-09	3.3250864e-09	0.8487957	-2.01429e-17	0.23302929
4.2253150514843526e-10	1.7942299e-09	2.897105e-09	0.8487957	-2.01429e-17	0.23303007
4.2500021632694495e-10	1.958838e-09	3.0287917e-09	0.8487957	-2.01429e-17	0.23303007
4.2751829959293844e-10	1.8106907e-09	2.732497e-09	0.8487957	-2.01429e-17	0.23302954
4.3003637152610124e-10	1.7448474e-09	2.5020452e-09	0.8487957	-2.01429e-17	0.2330298
4.325050777218637e-10	2.3703588e-09	2.7654186e-09	0.8487957	-2.0142903e-17	0.23302929
4.350231626260699e-10	2.6666536e-09	3.1604783e-09	0.8487957	-2.01429e-17	0.23303032
4.3754123997839375e-10	1.9423774e-09	3.094635e-09	0.8487958	-2.01429e-17	0.23302929
4.4000996022178557e-10	1.876534e-09	2.4032802e-09	0.8487957	-2.0142903e-17	0.23302904
4.425280488124783e-10	2.1728288e-09	2.633732e-09	0.8487957	-2.01429e-17	0.23303057
4.4504613764320816e-10	2.353898e-09	2.5678886e-09	0.8487957	-2.01429e-17	0.23302929
4.475148311527038e-10	2.2386721e-09	2.732497e-09	0.8487957	-2.0142903e-17	0.2330298
4.5003292382026803e-10	2.2715938e-09	2.3703588e-09	0.8487957	-2.01429e-17	0.23303057
4.5250162510026757e-10	2.419741e-09	2.7983402e-09	0.8487957	-2.01429e-17	0.23302954
4.550197125122468e-10	2.4032802e-09	2.8312617e-09	0.8487957	-2.01429e-17	0.23303007
4.575377968131294e-10	2.419741e-09	2.1728288e-09	0.8487958	-2.01429e-17	0.23302954
4.6000651022589523e-10	2.6995752e-09	2.5020452e-09	0.8487957	-2.0142902e-17	0.23302904
4.6252457430731077e-10	2.633732e-09	3.0287917e-09	0.8487957	-2.01429e-17	0.23303032
4.6504266988856795e-10	2.3209763e-09	3.2921648e-09	0.8487957	-2.0142902e-17	0.23302929
4.675113830765647e-10	1.8436124e-09	2.8641833e-09	0.8487957	-2.01429e-17	0.23302954
4.700294521036598e-10	1.7448474e-09	2.8312617e-09	0.8487957	-2.01429e-17	0.2330298
4.725475340529855e-10	2.0740638e-09	2.633732e-09	0.8487957	-2.0142902e-17	0.2330298
4.750162436159332e-10	2.0740638e-09	2.5678886e-09	0.8487957	-2.01429e-17	0.23303007
4.775343290730247e-10	2.6501927e-09	2.3703588e-09	0.8487957	-2.0142903e-17	0.23303007
4.800030446457977e-10	2.5678886e-09	2.534967e-09	0.8487957	-2.0142902e-17	0.23302904
4.825211092522475e-10	2.6666536e-09	2.6995752e-09	0.8487957	-2.0142902e-17	0.23303032
4.850391868898081e-10	2.3703588e-09	2.3703588e-09	0.8487957	-2.0142903e-17	0.23302904
4.875078966388487e-10	2.5678886e-09	2.6995752e-09	0.8487957	-2.0142903e-17	0.23302929
4.900259812470768e-10	2.0740638e-09	2.1728288e-09	0.8487957	-2.01429e-17	0.23303057
4.925440607132722e-10	2.0905246e-09	2.1069855e-09	0.8487957	-2.0142903e-17	0.2330298
4.950127612843429e-10	1.9423774e-09	2.0411421e-09	0.8487958	-2.0142902e-17	0.2330298
4.975308408336033e-10	2.3703588e-09	2.436202e-09	0.8487957	-2.01429e-17	0.23303007
5.000489248677553e-10	2.2715938e-09	2.2386721e-09	0.8487957	-2.0142902e-17	0.23303007
5.025176312811317e-10	2.6501927e-09	2.5020452e-09	0.8487957	-2.01429e-17	0.23303007
5.050357093324497e-10	2.6831144e-09	2.897105e-09	0.8487957	-2.01429e-17	0.23302904
5.07504424452188e-10	1.679004e-09	2.897105e-09	0.8487957	-2.0142903e-17	0.23302954
5.100224984752549e-10	1.5143958e-09	2.436202e-09	0.8487957	-2.01429e-17	0.23303007
5.125405787559902e-10	1.7283865e-09	1.7119257e-09	0.8487957	-2.01429e-17	0.23302954
5.150092716533765e-10	2.0082205e-09	1.5802392e-09	0.8487957	-2.01429e-17	0.23302954
5.175273528657079e-10	2.353898e-09	1.8436124e-09	0.8487957	-2.01429e-17	0.23303032
5.20045439836914e-10	2.3868196e-09	1.777769e-09	0.8487957	-2.01429e-17	0.23302954
5.22514132795603e-10	2.5678886e-09	1.2839443e-09	0.8487957	-2.01429e-17	0.23303007
5.25032216345199e-10	2.7983402e-09	1.8106907e-09	0.8487957	-2.01429e-17	0.23303007
5.275009102322551e-10	2.4032802e-09	2.2386721e-09	0.8487957	-2.01429e-17	0.23302929
5.300189719570827e-10	2.716036e-09	2.0411421e-09	0.8487958	-2.01429e-17	0.2330298
5.325370568304277e-10	3.0287917e-09	2.3703588e-09	0.8487957	-2.01429e-17	0.23302954
5.35005784358161e-10	2.6501927e-09	2.2057505e-09	0.8487957	-2.01429e-17	0.2330298
5.37523859174354e-10	2.3045155e-09	2.3703588e-09	0.8487957	-2.01429e-17	0.23303057
5.400419326174176e-10	1.9094557e-09	2.633732e-09	0.8487957	-2.01429e-17	0.2330298
5.425106346335479e-10	1.8600731e-09	2.436202e-09	0.8487957	-2.01429e-17	0.23303032
5.450287099620552e-10	2.1399071e-09	2.1069855e-09	0.8487957	-2.01429e-17	0.2330298
5.475467856676762e-10	2.0082205e-09	2.436202e-09	0.8487958	-2.0142902e-17	0.23303007
5.500154855124989e-10	2.255133e-09	2.6666536e-09	0.8487957	-2.0142902e-17	0.23303032
5.525335658153385e-10	2.3868196e-09	2.534967e-09	0.8487958	-2.01429e-17	0.23302929
5.550022620662588e-10	1.9423774e-09	2.534967e-09	0.8487958	-2.0142903e-17	0.23302954
5.575203412766776e-10	1.777769e-09	2.3045155e-09	0.8487957	-2.01429e-17	0.23303032
5.600384215604535e-10	2.0411421e-09	2.8641833e-09	0.8487957	-2.01429e-17	0.2330298
5.625071176536434e-10	2.1728288e-09	2.2386721e-09	0.8487957	-2.0142902e-17	0.23302954
5.65025190395169e-10	1.9752988e-09	1.9094557e-09	0.8487957	-2.01429e-17	0.23303057
5.67543254486341e-10	2.0905246e-09	1.3827093e-09	0.8487958	-2.01429e-17	0.23303007
5.700119678558659e-10	2.4691236e-09	1.8436124e-09	0.8487957	-2.01429e-17	0.23303032
5.72530053149245e-10	2.5678886e-09	2.5020452e-09	0.8487957	-2.01429e-17	0.23302929
5.750481191435191e-10	2.2057505e-09	2.3703588e-09	0.8487957	-2.0142902e-17	0.23303032
5.775168175954873e-10	1.5473175e-09	1.876534e-09	0.8487957	-2.01429e-17	0.23303032
5.800348771959204e-10	1.9423774e-09	2.4691236e-09	0.8487957	-2.0142902e-17	0.23303007
5.825035882608546e-10	1.9917596e-09	2.5020452e-09	0.8487957	-2.01429e-17	0.23303032
5.850216700099231e-10	1.5143958e-09	1.7448474e-09	0.8487958	-2.01429e-17	0.2330298
5.875397396846584e-10	2.2386721e-09	2.2386721e-09	0.8487957	-2.0142903e-17	0.23303007
5.900084319635012e-10	1.7119257e-09	2.633732e-09	0.8487957	-2.01429e-17	0.23303032
5.925265172632122e-10	1.6131608e-09	2.3703588e-09	0.8487957	-2.01429e-17	0.2330298
5.950445979790012e-10	1.8271515e-09	2.1069855e-09	0.8487958	-2.01429e-17	0.23303057
5.975132895514947e-10	1.777769e-09	1.1851794e-09	0.8487957	-2.01429e-17	0.23303032
6.000313487886058e-10	2.1728288e-09	1.6131608e-09	0.8487957	-2.01429e-17	0.23302929
6.025000620145432e-10	2.534967e-09	1.5802392e-09	0.8487957	-2.01429e-17	0.23303007
6.050181269201828e-10	3.1604783e-09	1.8436124e-09	0.8487957	-2.0142903e-17	0.23302954
6.07536186419122e-10	2.6501927e-09	2.897105e-09	0.8487957	-2.01429e-17	0.23303007
6.100048746600768e-10	2.4032802e-09	2.6995752e-09	0.8487957	-2.01429e-17	0.23303032
6.125229517915358e-10	2.5678886e-09	2.1069855e-09	0.8487957	-2.01429e-17	0.2330298
6.150410433719636e-10	2.99587e-09	1.9752988e-09	0.8487957	-2.01429e-17	0.23303032
6.175097298605126e-10	2.7983402e-09	2.7654186e-09	0.8487957	-2.01429e-17	0.23303032
6.200278003133327e-10	1.9094557e-09	2.7654186e-09	0.8487957	-2.01429e-17	0.23302954
6.225458881757799e-10	1.8436124e-09	3.1275567e-09	0.8487957	-2.0142902e-17	0.2330298
6.250145918443174e-10	1.5802392e-09	2.897105e-09	0.8487957	-2.01429e-17	0.23303032
6.275326597083484e-10	2.0082205e-09	2.6995752e-09	0.8487957	-2.0142902e-17	0.23303007
6.300013610433692e-10	2.5020452e-09	2.436202e-09	0.8487957	-2.0142903e-17	0.23303032
6.325194257257816e-10	2.9300267e-09	2.5678886e-09	0.8487957	-2.01429e-17	0.2330298
6.350374970725113e-10	2.436202e-09	2.897105e-09	0.8487957	-2.01429e-17	0.23303032
6.375061878884291e-10	2.99587e-09	2.3703588e-09	0.8487958	-2.01429e-17	0.23303032
6.400242644515165e-10	2.6008102e-09	2.3703588e-09	0.8487957	-2.01429e-17	0.23302954
6.425423398246018e-10	2.7983402e-09	2.4032802e-09	0.8487957	-2.01429e-17	0.23303032
6.450110326809669e-10	2.534967e-09	3.1604783e-09	0.8487957	-2.0142903e-17	0.2330298
6.475290994267308e-10	2.5020452e-09	2.3703588e-09	0.8487957	-2.01429e-17	0.23302954
6.500471628590387e-10	2.2386721e-09	2.2057505e-09	0.8487957	-2.0142903e-17	0.23303032
6.525158627535173e-10	2.3703588e-09	2.3045155e-09	0.8487957	-2.0142902e-17	0.2330298
6.550339285890523e-10	2.3703588e-09	2.8312617e-09	0.8487957	-2.01429e-17	0.23303032
6.575026161842958e-10	1.8929949e-09	2.3703588e-09	0.8487957	-2.01429e-17	0.23303032
6.600206977376488e-10	2.436202e-09	2.2386721e-09	0.8487958	-2.01429e-17	0.23302954
6.625387675054179e-10	2.0905246e-09	2.7654186e-09	0.8487957	-2.0142902e-17	0.23303084
6.65007477211713e-10	2.156368e-09	3.1604783e-09	0.8487957	-2.0142903e-17	0.23303007
6.675255403524923e-10	2.0740638e-09	3.1275567e-09	0.8487957	-2.01429e-17	0.23302954
6.700436007233187e-10	1.777769e-09	3.3909298e-09	0.8487957	-2.01429e-17	0.2330298
6.72512293939695e-10	2.2057505e-09	3.0617133e-09	0.8487957	-2.01429e-17	0.23303007
6.750303693879114e-10	1.679004e-09	2.897105e-09	0.8487958	-2.01429e-17	0.23303032
6.775484308090575e-10	1.9094557e-09	3.1604783e-09	0.8487958	-2.01429e-17	0.23303007
6.800171377614103e-10	1.8106907e-09	3.0617133e-09	0.8487957	-2.01429e-17	0.23303007
6.825352008977266e-10	1.4485525e-09	2.3703588e-09	0.8487957	-2.01429e-17	0.23303032
6.850038982066373e-10	1.7119257e-09	2.5020452e-09	0.8487957	-2.0142902e-17	0.23303007
6.875219525801151e-10	1.5143958e-09	2.5020452e-09	0.8487957	-2.01429e-17	0.23303007
6.90040017720916e-10	1.679004e-09	2.2386721e-09	0.8487957	-2.01429e-17	0.23303007
6.925087268387489e-10	1.3497876e-09	2.1069855e-09	0.8487957	-2.01429e-17	0.2330298
6.950267864380342e-10	1.6131608e-09	1.9752988e-09	0.8487957	-2.01429e-17	0.2330298
6.975448587091311e-10	2.0740638e-09	2.2386721e-09	0.8487957	-2.0142903e-17	0.23303007
7.000135386734051e-10	2.1892896e-09	2.1728288e-09	0.8487957	-2.01429e-17	0.23303032
7.025315988185507e-10	2.1399071e-09	2.633732e-09	0.8487957	-2.01429e-17	0.23303007
7.05000293800849e-10	2.3868196e-09	1.5802392e-09	0.8487957	-2.01429e-17	0.23303007
7.075183741711371e-10	2.4032802e-09	2.0411421e-09	0.8487957	-2.0142902e-17	0.23303007
7.100364507000582e-10	2.633732e-09	1.777769e-09	0.8487957	-2.01429e-17	0.23303057
7.125051219476971e-10	2.7818794e-09	1.7119257e-09	0.8487957	-2.01429e-17	0.23303007
7.150231940952019e-10	2.5020452e-09	2.2715938e-09	0.8487957	-2.01429e-17	0.23303032
7.175412655769342e-10	1.5802392e-09	2.4691236e-09	0.8487957	-2.01429e-17	0.23303007
7.200099522203154e-10	1.5802392e-09	2.3045155e-09	0.8487957	-2.01429e-17	0.23302954
7.225280128234756e-10	2.0082205e-09	1.8436124e-09	0.8487958	-2.01429e-17	0.23303057
7.250460708498702e-10	1.9752988e-09	1.8436124e-09	0.8487957	-2.01429e-17	0.23303032
7.275147693466359e-10	1.5802392e-09	2.2057505e-09	0.8487957	-2.01429e-17	0.23302929
7.300328270161172e-10	1.8106907e-09	2.1728288e-09	0.8487957	-2.01429e-17	0.23303057
7.325015200007677e-10	1.4814742e-09	2.3045155e-09	0.8487957	-2.0142903e-17	0.23303084
7.35019583355932e-10	2.0411421e-09	1.9094557e-09	0.8487958	-2.01429e-17	0.23303007
7.375376323296557e-10	2.255133e-09	2.1728288e-09	0.8487957	-2.01429e-17	0.23303007
7.40006329860619e-10	2.436202e-09	1.7119257e-09	0.8487957	-2.0142903e-17	0.23303032
7.42524398344607e-10	2.2386721e-09	1.777769e-09	0.8487957	-2.01429e-17	0.23303032
7.450424533275241e-10	2.1234463e-09	1.9752988e-09	0.8487957	-2.0142903e-17	0.23303032
7.475111359384418e-10	2.2222113e-09	1.5802392e-09	0.8487957	-2.0142902e-17	0.23303007
7.50029192774737e-10	2.7489577e-09	2.436202e-09	0.8487957	-2.01429e-17	0.23303032
7.525472531300667e-10	2.5020452e-09	2.6995752e-09	0.8487957	-2.01429e-17	0.2330298
7.550159427304198e-10	2.1728288e-09	2.8312617e-09	0.8487957	-2.0142903e-17	0.23303007
7.575340060508182e-10	2.0411421e-09	2.4032802e-09	0.8487957	-2.0142902e-17	0.23303007
7.600026662744356e-10	2.255133e-09	2.6666536e-09	0.8487957	-2.01429e-17	0.23303007
7.625207288112601e-10	2.057603e-09	2.4032802e-09	0.8487957	-2.01429e-17	0.23303057
7.650387963229961e-10	1.8436124e-09	2.7654186e-09	0.8487958	-2.0142902e-17	0.23303057
7.67507492574259e-10	1.1193361e-09	2.7654186e-09	0.8487957	-2.01429e-17	0.23303007
7.700255284339886e-10	1.1522577e-09	2.1069855e-09	0.8487957	-2.0142902e-17	0.23302954
7.725436026310873e-10	1.9423774e-09	2.5678886e-09	0.8487957	-2.01429e-17	0.23303032
7.750122789471409e-10	2.1728288e-09	2.5678886e-09	0.8487957	-2.01429e-17	0.23303007
7.775302770412707e-10	2.633732e-09	2.3703588e-09	0.8487957	-2.0142903e-17	0.2330311
7.800482771997655e-10	2.6008102e-09	2.436202e-09	0.8487957	-2.01429e-17	0.23303007
7.825168922733634e-10	2.633732e-09	2.3045155e-09	0.8487957	-2.01429e-17	0.23303057
7.850349100624771e-10	2.3374371e-09	2.0411421e-09	0.8487957	-2.0142902e-17	0.23303007
7.875035314206454e-10	2.6995752e-09	1.9094557e-09	0.8487957	-2.01429e-17	0.23303032
7.900215342560151e-10	2.2386721e-09	2.8312617e-09	0.8487957	-2.01429e-17	0.23303007
7.925395399527545e-10	1.8106907e-09	2.7654186e-09	0.8487958	-2.0142903e-17	0.23303007
7.950081580585196e-10	1.777769e-09	2.6995752e-09	0.8487958	-2.01429e-17	0.23302929
7.975261418452916e-10	1.316866e-09	1.9752988e-09	0.8487957	-2.01429e-17	0.23303032
8.000441357738002e-10	1.5802392e-09	1.7119257e-09	0.8487957	-2.01429e-17	0.23303007
8.025127591236929e-10	2.6995752e-09	1.6460824e-09	0.8487957	-2.0142902e-17	0.23303084
8.050307577564389e-10	2.6995752e-09	1.8106907e-09	0.8487957	-2.0142903e-17	0.23303007
8.075487481339188e-10	2.5678886e-09	2.633732e-09	0.8487957	-2.01429e-17	0.23303084
8.100173766967643e-10	2.3209763e-09	2.6995752e-09	0.8487957	-2.0142902e-17	0.23303032
8.125353666464223e-10	1.6460824e-09	3.094635e-09	0.8487957	-2.01429e-17	0.23303057
8.150039924495565e-10	1.1851794e-09	1.7119257e-09	0.8487957	-2.01429e-17	0.23303007
8.175219923527175e-10	1.8436124e-09	1.1851794e-09	0.8487957	-2.01429e-17	0.2330298
8.20039971141694e-10	2.1892896e-09	1.2510226e-09	0.8487957	-2.01429e-17	0.23303032
8.225085971527961e-10	2.6008102e-09	1.7119257e-09	0.8487957	-2.01429e-17	0.23303032
8.250265833816052e-10	2.5020452e-09	2.3374371e-09	0.8487958	-2.01429e-17	0.23303007
8.275445803402539e-10	1.7283865e-09	2.2386721e-09	0.8487957	-2.01429e-17	0.23303057
8.300131888360317e-10	1.4156308e-09	1.316866e-09	0.8487958	-2.01429e-17	0.23303057
8.325311801121479e-10	1.9752988e-09	1.2510226e-09	0.8487957	-2.0142903e-17	0.23303084
8.350491872474199e-10	2.2057505e-09	1.777769e-09	0.8487957	-2.0142902e-17	0.23303032
8.375178048328407e-10	2.5020452e-09	1.9094557e-09	0.8487957	-2.01429e-17	0.2330298
8.400357816145678e-10	2.3045155e-09	2.5020452e-09	0.8487958	-2.0142902e-17	0.2330298
8.42504403573427e-10	2.353898e-09	2.633732e-09	0.8487957	-2.0142902e-17	0.23302954
8.450224001986414e-10	2.1069855e-09	1.8106907e-09	0.8487957	-2.01429e-17	0.23303057
8.475403789938994e-10	2.1728288e-09	2.2057505e-09	0.8487957	-2.01429e-17	0.23303032
8.500089925484483e-10	1.777769e-09	1.8436124e-09	0.8487958	-2.01429e-17	0.23303084
8.525269855936706e-10	2.0740638e-09	1.9094557e-09	0.8487957	-2.01429e-17	0.23303032
8.550449799080914e-10	2.0411421e-09	1.679004e-09	0.8487958	-2.0142902e-17	0.23303032
8.575135987474554e-10	2.3703588e-09	2.1728288e-09	0.8487957	-2.01429e-17	0.23303084
8.600315963876038e-10	2.2386721e-09	2.1069855e-09	0.8487957	-2.01429e-17	0.23303084
8.625002057900713e-10	2.4526627e-09	1.9752988e-09	0.8487957	-2.01429e-17	0.23303057
8.65018189484426e-10	2.633732e-09	1.9752988e-09	0.8487958	-2.0142903e-17	0.23303032
8.675361778108207e-10	2.5678886e-09	2.0411421e-09	0.8487957	-2.01429e-17	0.23303032
8.700047992060396e-10	2.2057505e-09	2.4032802e-09	0.8487957	-2.01429e-17	0.23303057
8.725227745269879e-10	2.3868196e-09	2.1069855e-09	0.8487957	-2.01429e-17	0.2330298
8.75040769388901e-10	2.2386721e-09	2.3703588e-09	0.8487957	-2.01429e-17	0.23303084
8.775093809157531e-10	2.6995752e-09	2.2057505e-09	0.8487957	-2.01429e-17	0.2330298