# t (s)	mx ()	my ()	mz ()	E_total (J)	MaxAngle (rad)
0	1.0164559e-09	2.9629485e-10	0.9795359	-2.0725773e-17	0.26627198
2.5039902011368594e-12	2.897105e-09	1.2571955e-09	0.9597338	-2.0602765e-17	0.23534691
5.035677030111964e-12	4.312736e-09	5.8600533e-09	0.9364069	-2.0276953e-17	0.22945383
7.512295134344365e-12	1.7119257e-09	1.5407332e-08	0.9153783	-1.9861561e-17	0.22938544
1.0035268324699354e-11	-5.6625233e-09	2.7061596e-08	0.8978922	-1.9538686e-17	0.23204176
1.2507063266209278e-11	-1.0929988e-08	3.6213812e-08	0.88507134	-1.942543e-17	0.24309875
1.5027501090582856e-11	-1.2641913e-08	4.1612964e-08	0.87599057	-1.9477576e-17	0.26314124
1.754741835680391e-11	-1.0732458e-08	4.2863988e-08	0.8696167	-1.9601577e-17	0.27211452
2.0017523289990892e-11	-9.283905e-09	4.134959e-08	0.8646489	-1.9729297e-17	0.27428758
2.2536728528290484e-11	-8.362099e-09	3.7662367e-08	0.8600362	-1.9840491e-17	0.27224618
2.500634293566715e-11	-8.230412e-09	3.1868154e-08	0.8556296	-1.9925046e-17	0.26748616
2.7525174947371852e-11	-8.164569e-09	2.5810573e-08	0.8512111	-1.9988105e-17	0.26106563
3.004388379736691e-11	-7.934117e-09	1.9818833e-08	0.846961	-2.003224e-17	0.2536753
3.2513082519317063e-11	-7.0781545e-09	1.417277e-08	0.84306186	-2.0061774e-17	0.24852152
3.5031569087941347e-11	-5.629602e-09	9.646043e-09	0.8394249	-2.0081914e-17	0.24476902
3.750058128188237e-11	-3.374469e-09	6.2386523e-09	0.8362195	-2.009489e-17	0.24172014
4.001888754099369e-11	-1.8106907e-09	4.5761093e-09	0.8333241	-2.0103442e-17	0.2383124
4.253713879103378e-11	-9.876494e-10	2.954718e-09	0.8308045	-2.0108817e-17	0.23718618
4.500596218062139e-11	3.6213813e-10	1.3991701e-09	0.82868934	-2.011202e-17	0.23593514
4.7524136285104856e-11	1.6131608e-09	1.4362069e-09	0.8268739	-2.0113866e-17	0.23460037
5.004228162383266e-11	2.436202e-09	2.2386721e-09	0.8253735	-2.0114776e-17	0.23335686
5.251102970196177e-11	1.1851794e-09	2.255133e-09	0.8241741	-2.0115079e-17	0.23228553
5.502913466885752e-11	1.4485525e-09	7.6954354e-10	0.8231925	-2.0115026e-17	0.23141421
5.754724749236958e-11	1.6954649e-09	7.901196e-10	0.8224205	-2.011477e-17	0.23135728
6.001598116120879e-11	3.1604783e-09	1.0864144e-09	0.82183576	-2.011442e-17	0.23128891
6.253408473577144e-11	2.9464875e-09	1.9814717e-09	0.82138497	-2.011403e-17	0.23122051
6.50028225410049e-11	2.4691236e-09	2.736612e-09	0.8210592	-2.0113656e-17	0.2311685
6.752090796021702e-11	2.3045155e-09	1.9752988e-09	0.820821	-2.0113302e-17	0.23113103
7.003901404409884e-11	2.3209763e-09	1.9218012e-09	0.8206569	-2.0112991e-17	0.231105
7.250773672095974e-11	2.0082205e-09	2.1275615e-09	0.8205509	-2.0112731e-17	0.231092
7.502583862806441e-11	1.679004e-09	2.0874382e-09	0.82048476	-2.0112513e-17	0.23108704
7.754393823535447e-11	1.8106907e-09	1.6604856e-09	0.8204491	-2.0112337e-17	0.23108783
8.001266303193869e-11	2.0740638e-09	1.4485525e-09	0.820435	-2.0112202e-17	0.23109278
8.253076336331148e-11	2.2057505e-09	1.0905296e-09	0.82043475	-2.01121e-17	0.23109823
8.504887741457056e-11	2.633732e-09	1.3189235e-09	0.8204433	-2.0112021e-17	0.23110762
8.751760274920836e-11	2.5267366e-09	1.7119257e-09	0.82045645	-2.0111964e-17	0.23111542
9.003570726739584e-11	2.5678886e-09	1.6934073e-09	0.8204722	-2.0111929e-17	0.23112088
9.250443357748584e-11	2.0411421e-09	1.5802392e-09	0.820488	-2.0111904e-17	0.23112792
9.502253133757849e-11	2.5678886e-09	1.8436124e-09	0.8205033	-2.011189e-17	0.23113415
9.754063921625039e-11	2.6831144e-09	1.9526654e-09	0.8205171	-2.0111882e-17	0.23113884
1.0000936157548714e-10	2.5678886e-09	1.876534e-09	0.8205289	-2.0111876e-17	0.23114327
1.0252745903466035e-10	3.6378422e-09	1.5555479e-09	0.820539	-2.0111876e-17	0.23114482
1.0504555356061712e-10	2.9794092e-09	2.3209763e-09	0.82054734	-2.011188e-17	0.23114897
1.0751427375453914e-10	2.0905246e-09	2.1069855e-09	0.8205537	-2.011188e-17	0.23115106
1.1003238770008895e-10	1.3497876e-09	2.2633633e-09	0.82055885	-2.0111887e-17	0.23115028
1.1250112778813956e-10	1.7283865e-09	1.4794166e-09	0.8205627	-2.0111889e-17	0.23115133
1.1501923458630198e-10	2.6008102e-09	1.3991701e-09	0.8205656	-2.0111894e-17	0.2311534
1.1753732731988574e-10	2.255133e-09	2.49793e-09	0.8205677	-2.0111897e-17	0.2311534
1.2000605525619237e-10	1.8106907e-09	2.2469024e-09	0.82056904	-2.01119e-17	0.23115367
1.225241546947335e-10	1.777769e-09	1.907398e-09	0.82056993	-2.0111902e-17	0.2311534
1.25042262020015e-10	1.3991701e-09	1.4094581e-09	0.8205705	-2.0111902e-17	0.23115417
1.2751096873547063e-10	1.6707736e-09	6.58433e-10	0.8205709	-2.0111906e-17	0.23115471
1.3002908612400874e-10	2.3209763e-09	1.0534927e-09	0.8205709	-2.0111906e-17	0.23115262
1.3254718381220407e-10	2.0082205e-09	1.3827093e-09	0.8205709	-2.0111907e-17	0.23115496
1.350159104499173e-10	1.6625432e-09	1.2757139e-09	0.8205709	-2.0111906e-17	0.23115392
1.375340209796136e-10	1.8929949e-09	1.7757115e-09	0.82057065	-2.0111909e-17	0.23115262
1.4000275961169066e-10	1.4485525e-09	1.5864119e-09	0.8205705	-2.011191e-17	0.23115367
1.4252084788158963e-10	2.057603e-09	1.2098705e-09	0.82057035	-2.0111909e-17	0.23115289
1.4503895523736604e-10	2.2222113e-09	1.5020503e-09	0.8205702	-2.0111909e-17	0.23115392
1.475076792822715e-10	1.7942299e-09	1.9423774e-09	0.82057005	-2.011191e-17	0.23115417
1.5002578640284343e-10	1.5143958e-09	1.238677e-09	0.82057	-2.0111909e-17	0.23115212
1.5254388616099272e-10	1.8271515e-09	1.1707761e-09	0.8205699	-2.0111909e-17	0.23115392
1.5501262625343335e-10	2.0246813e-09	1.5802392e-09	0.8205699	-2.0111909e-17	0.23115417
1.575307276380066e-10	2.057603e-09	2.3127458e-09	0.8205698	-2.0111907e-17	0.23115237
1.6004881153359139e-10	1.9259165e-09	1.7139833e-09	0.8205698	-2.0111907e-17	0.23115392
1.6251753854432588e-10	1.7613082e-09	1.2715987e-09	0.8205697	-2.0111909e-17	0.23115289
1.6503565058971734e-10	2.5020452e-09	1.2654259e-09	0.8205696	-2.0111909e-17	0.23115315
1.675043728951783e-10	2.9300267e-09	1.6748889e-09	0.8205696	-2.0111909e-17	0.23115417
1.7002247271790696e-10	3.2427825e-09	2.0041053e-09	0.8205697	-2.0111907e-17	0.23115237
1.725405713065124e-10	2.9300267e-09	1.7921723e-09	0.8205697	-2.0111909e-17	0.23115392
1.7500929629124862e-10	2.2386721e-09	1.1707761e-09	0.8205696	-2.0111907e-17	0.23115392
1.7752740910963923e-10	2.5020452e-09	4.4444226e-10	0.8205696	-2.0111907e-17	0.23115289
1.8004551812506074e-10	3.0699436e-09	1.1563729e-09	0.82056963	-2.0111909e-17	0.23115417
1.8251424689105933e-10	2.7654186e-09	1.0041102e-09	0.8205696	-2.0111907e-17	0.2311534
1.8503233740166847e-10	2.1069855e-09	1.0329168e-09	0.8205696	-2.0111907e-17	0.23115315
1.8750105551079907e-10	2.1399071e-09	1.1234512e-09	0.8205697	-2.0111907e-17	0.23115367
1.900191513898233e-10	2.353898e-09	1.0534927e-09	0.8205696	-2.0111909e-17	0.23115262
1.925372590134695e-10	2.3045155e-09	4.4855747e-10	0.8205696	-2.0111907e-17	0.23115367
1.9500598848723517e-10	2.954718e-09	1.0164559e-09	0.8205696	-2.0111907e-17	0.23115392
1.9752409207314718e-10	2.6666536e-09	2.1851745e-09	0.8205696	-2.0111907e-17	0.23115183
2.000421852083215e-10	2.633732e-09	2.5267366e-09	0.8205696	-2.0111909e-17	0.23115392
2.0251091205298887e-10	2.732497e-09	1.917686e-09	0.8205696	-2.0111907e-17	0.2311534
2.050290075627863e-10	2.6419622e-09	1.668716e-09	0.8205696	-2.0111909e-17	0.23115289
2.0754711692968376e-10	2.419741e-09	2.2880546e-09	0.8205696	-2.0111907e-17	0.23115315
2.100158240783323e-10	2.4032802e-09	2.078179e-09	0.8205697	-2.0111909e-17	0.23115289
2.1253393906776483e-10	2.0246813e-09	2.279824e-09	0.8205696	-2.0111907e-17	0.23115367
2.150026555820707e-10	1.9917596e-09	1.9218012e-09	0.8205696	-2.0111907e-17	0.23115392
2.175207529822634e-10	2.156368e-09	1.8127483e-09	0.8205696	-2.0111907e-17	0.23115237
2.2003885670535196e-10	1.4156308e-09	1.9752988e-09	0.8205696	-2.0111907e-17	0.23115417
2.225075662511411e-10	1.777769e-09	1.7736538e-09	0.8205697	-2.0111907e-17	0.23115392
2.2502566578732738e-10	1.6131608e-09	1.2818867e-09	0.8205696	-2.0111907e-17	0.23115262
2.2754376939615675e-10	1.876534e-09	1.4485525e-09	0.8205696	-2.0111909e-17	0.23115417
2.3001248637507612e-10	2.5020452e-09	1.2427922e-09	0.8205697	-2.0111909e-17	0.23115315
2.3253058073622877e-10	2.59258e-09	1.316866e-09	0.8205696	-2.0111907e-17	0.2311534
2.350486728935539e-10	2.3209763e-09	1.4135733e-09	0.8205697	-2.0111907e-17	0.23115289
2.3751737889927695e-10	2.0411421e-09	1.176949e-09	0.8205696	-2.0111907e-17	0.23115262
2.4003548064883826e-10	2.633732e-09	1.2880595e-09	0.8205696	-2.0111909e-17	0.23115417
2.4250418539830403e-10	2.8806442e-09	2.0123359e-09	0.8205696	-2.0111907e-17	0.23115417
2.450222936912451e-10	2.732497e-09	2.047315e-09	0.8205697	-2.0111907e-17	0.23115237
2.4754038411007e-10	2.8477225e-09	2.7345544e-09	0.8205696	-2.0111909e-17	0.23115417
2.5000909775977143e-10	2.9464875e-09	2.3333218e-09	0.8205696	-2.0111907e-17	0.23115315
2.5252721197978704e-10	3.0781742e-09	2.5102758e-09	0.8205696	-2.0111909e-17	0.23115315
2.550452898518878e-10	2.633732e-09	2.897105e-09	0.82056963	-2.0111909e-17	0.23115289
2.575139984327564e-10	2.7654186e-09	2.0617184e-09	0.8205697	-2.011191e-17	0.23115237
2.600320865940458e-10	2.4526627e-09	1.866246e-09	0.8205696	-2.0111907e-17	0.23115392
2.625007971096651e-10	2.3703588e-09	2.0534878e-09	0.8205697	-2.0111909e-17	0.23115367
2.6501889833002046e-10	1.9259165e-09	2.399165e-09	0.8205697	-2.0111907e-17	0.23115262
2.6753699728463634e-10	1.3662484e-09	2.1687137e-09	0.8205696	-2.0111907e-17	0.23115367
2.7000571849675024e-10	1.2839443e-09	1.9300317e-09	0.8205696	-2.0111907e-17	0.2311534
2.7252380532527823e-10	1.7942299e-09	2.135792e-09	0.8205697	-2.011191e-17	0.23115289
2.750418827663129e-10	1.6460824e-09	1.6666585e-09	0.8205697	-2.0111909e-17	0.23115367
2.7751060711251626e-10	2.4032802e-09	1.4567829e-09	0.8205696	-2.0111909e-17	0.23115237
2.8002868100554927e-10	2.0082205e-09	2.3827043e-09	0.8205696	-2.0111909e-17	0.23115392
2.8254678305054723e-10	1.4485525e-09	1.306578e-09	0.8205696	-2.0111907e-17	0.23115315
2.850154998782837e-10	2.2057505e-09	1.3539028e-09	0.82056963	-2.0111907e-17	0.23115237
2.875335789355824e-10	2.6666536e-09	1.6501976e-09	0.8205696	-2.0111907e-17	0.23115392
2.900022860606212e-10	2.6008102e-09	1.5678935e-09	0.8205696	-2.0111909e-17	0.23115392
2.925203834259222e-10	2.99587e-09	1.637852e-09	0.8205697	-2.0111907e-17	0.23115315
2.9503847243662955e-10	3.1769392e-09	1.917686e-09	0.8205696	-2.0111907e-17	0.23115367
2.975071910059987e-10	2.6831144e-09	1.617276e-09	0.8205696	-2.011191e-17	0.23115289
3.0002528285582334e-10	3.0123308e-09	1.5802392e-09	0.8205696	-2.0111907e-17	0.2311534
3.02543368608129e-10	2.6666536e-09	1.497935e-09	0.8205696	-2.011191e-17	0.23115315
3.050120679791687e-10	2.6501927e-09	1.4526678e-09	0.8205697	-2.0111907e-17	0.23115289
3.075301603508678e-10	2.0411421e-09	2.0123359e-09	0.8205696	-2.0111909e-17	0.23115367
3.100482320602034e-10	2.5020452e-09	2.1069855e-09	0.8205696	-2.0111907e-17	0.23115262
3.1251695122399e-10	1.6131608e-09	2.477354e-09	0.8205696	-2.011191e-17	0.2311534
3.150350364579468e-10	1.876534e-09	1.8888795e-09	0.8205696	-2.0111907e-17	0.23115392
3.175037337162207e-10	2.8065705e-09	1.477359e-09	0.8205697	-2.0111907e-17	0.23115315
3.200218297469002e-10	3.3909298e-09	1.9115132e-09	0.8205696	-2.0111907e-17	0.23115315
3.2253990759554314e-10	3.456773e-09	1.7242714e-09	0.8205696	-2.0111909e-17	0.23115315
3.2500861259692227e-10	3.094635e-09	2.4403173e-09	0.8205696	-2.0111907e-17	0.23115237
3.2752669559720596e-10	2.4032802e-09	2.2880546e-09	0.8205696	-2.0111909e-17	0.23115417
3.3004476365601313e-10	2.156368e-09	2.1069855e-09	0.8205696	-2.0111907e-17	0.23115262
3.3251348837602976e-10	1.8518427e-09	1.9218012e-09	0.8205696	-2.0111907e-17	0.23115289
3.350315665468238e-10	1.9752988e-09	1.995875e-09	0.8205696	-2.0111909e-17	0.23115417
3.375002662974427e-10	1.8271515e-09	1.5678935e-09	0.8205696	-2.0111907e-17	0.23115315
3.400183464285783e-10	1.5967e-09	2.1275615e-09	0.8205696	-2.0111909e-17	0.2311534
3.42536425560222e-10	1.2839443e-09	1.4485525e-09	0.8205696	-2.0111907e-17	0.23115367
3.450051320235752e-10	1.5143958e-09	1.316866e-09	0.8205696	-2.0111907e-17	0.23115315
3.4752320039683544e-10	1.6954649e-09	1.0288015e-09	0.8205696	-2.0111907e-17	0.23115417
3.5004128770896677e-10	1.876534e-09	9.3003655e-10	0.8205697	-2.0111907e-17	0.23115289
3.5250998427797146e-10	2.2057505e-09	7.7983153e-10	0.8205697	-2.0111907e-17	0.23115289
3.5502805436340566e-10	2.6501927e-09	1.2818867e-09	0.8205696	-2.0111909e-17	0.23115417
3.575461253094257e-10	2.9300267e-09	1.9752988e-09	0.8205696	-2.0111909e-17	0.23115237
3.600148206592318e-10	3.0781742e-09	2.668711e-09	0.8205697	-2.0111909e-17	0.23115289
3.625329010546857e-10	1.8106907e-09	2.5843494e-09	0.8205696	-2.0111909e-17	0.2311534
3.650016163913841e-10	2.0740638e-09	2.504103e-09	0.8205696	-2.0111909e-17	0.23115315
3.6751969021634237e-10	1.3662484e-09	2.3703588e-09	0.8205696	-2.0111907e-17	0.23115417
3.700377523991464e-10	1.6460824e-09	1.1028752e-09	0.8205696	-2.0111907e-17	0.23115315
3.7250643869388967e-10	2.0082205e-09	1.6501976e-09	0.8205697	-2.0111907e-17	0.23115289
3.750245244607042e-10	1.8271515e-09	1.716041e-09	0.8205696	-2.0111907e-17	0.23115417
3.7754260357150685e-10	1.6954649e-09	1.5287991e-09	0.8205696	-2.0111907e-17	0.23115315
3.800112935472871e-10	2.0082205e-09	1.1563729e-09	0.8205696	-2.0111907e-17	0.23115315
3.825293702209435e-10	2.897105e-09	1.6296217e-09	0.8205697	-2.0111907e-17	0.23115392
3.8504743167517915e-10	3.0287917e-09	2.0287967e-09	0.8205696	-2.0111907e-17	0.23115315
3.8751612252382644e-10	2.6995752e-09	2.5637734e-09	0.8205697	-2.0111909e-17	0.23115392
3.900341957472217e-10	2.633732e-09	1.7242714e-09	0.8205697	-2.0111909e-17	0.23115289
3.925028849895076e-10	2.4855844e-09	1.477359e-09	0.8205696	-2.0111907e-17	0.23115237
3.950209662092071e-10	2.3703588e-09	1.4608982e-09	0.8205696	-2.0111907e-17	0.23115392
3.9753902376603306e-10	3.1934e-09	1.3415572e-09	0.8205696	-2.0111907e-17	0.23115262
4.0000772297387273e-10	3.3250864e-09	2.1399071e-09	0.8205696	-2.0111907e-17	0.2311534
4.025257917106852e-10	3.4238514e-09	2.613156e-09	0.8205696	-2.0111907e-17	0.23115392
4.050438686033391e-10	2.8641833e-09	2.1892896e-09	0.8205696	-2.0111907e-17	0.2311534
4.075125542461783e-10	2.6666536e-09	2.135792e-09	0.8205697	-2.0111907e-17	0.23115367
4.1003061250784055e-10	2.6666536e-09	1.679004e-09	0.8205696	-2.0111909e-17	0.23115367
4.1254867819839075e-10	2.4691236e-09	1.9752988e-09	0.8205696	-2.011191e-17	0.23115367
4.1501736048490564e-10	2.156368e-09	1.6008151e-09	0.8205696	-2.0111907e-17	0.23115392
4.175354226848154e-10	2.4526627e-09	1.3497876e-09	0.8205696	-2.0111909e-17	0.23115289
4.2000412479083717e-10	2.4032802e-09	2.3559554e-09	0.8205696	-2.0111907e-17	0.2311534
4.2252218545309694e-10	1.7448474e-09	2.0493727e-09	0.8205696	-2.011191e-17	0.23115392
4.250402490909979e-10	2.1728288e-09	1.6501976e-09	0.8205696	-2.0111907e-17	0.2311534
4.275089409335497e-10	1.6131608e-09	1.5987576e-09	0.8205696	-2.0111907e-17	0.23115367
4.3002698917825985e-10	1.9094557e-09	1.3950548e-09	0.8205696	-2.0111907e-17	0.23115392
4.3254504984747807e-10	1.8600731e-09	1.487647e-09	0.8205697	-2.0111907e-17	0.23115367
4.3501373631179014e-10	1.5802392e-09	1.1604882e-09	0.8205696	-2.011191e-17	0.23115417
4.375317977471691e-10	2.1069855e-09	1.207813e-09	0.82056963	-2.0111907e-17	0.23115262
4.4000047845204176e-10	2.1234463e-09	1.2839443e-09	0.8205697	-2.0111907e-17	0.23115315
4.425185360656593e-10	2.3045155e-09	1.1666609e-09	0.8205696	-2.0111909e-17	0.23115392
4.450366001420892e-10	2.4691236e-09	1.7798266e-09	0.82056963	-2.0111907e-17	0.23115367
4.475052626548613e-10	2.6501927e-09	1.8477275e-09	0.82056963	-2.0111909e-17	0.23115367
4.500233277895931e-10	2.3703588e-09	1.7283865e-09	0.8205696	-2.0111907e-17	0.23115367
4.525413713936849e-10	2.1728288e-09	1.3374419e-09	0.8205696	-2.0111907e-17	0.23115392
4.5501005347933975e-10	2.6831144e-09	1.1604882e-09	0.82056963	-2.0111907e-17	0.23115392
4.5752812404797384e-10	3.9505976e-09	1.0432047e-09	0.8205696	-2.0111909e-17	0.23115262
4.600461779387797e-10	3.9259067e-09	1.8415547e-09	0.8205696	-2.0111907e-17	0.23115392
4.625148554156517e-10	3.7859897e-09	2.1069855e-09	0.8205697	-2.0111907e-17	0.23115367
4.6503289793524794e-10	3.3086256e-09	3.094635e-09	0.8205696	-2.0111907e-17	0.23115367
4.675015716413289e-10	3.3250864e-09	2.3292066e-09	0.8205696	-2.0111909e-17	0.2311534
4.700196070859611e-10	2.855953e-09	2.8106857e-09	0.8205696	-2.0111909e-17	0.23115392
4.72537655855844e-10	2.633732e-09	2.2139808e-09	0.8205696	-2.0111909e-17	0.23115315
4.750063308870535e-10	2.2386721e-09	1.2469075e-09	0.8205696	-2.0111909e-17	0.23115392
4.775243764939783e-10	2.2386721e-09	1.5967e-09	0.8205697	-2.0111907e-17	0.23115392
4.800424341834529e-10	2.0905246e-09	1.777769e-09	0.82056963	-2.0111907e-17	0.23115367
4.825110959557457e-10	1.8600731e-09	1.4855894e-09	0.8205696	-2.0111907e-17	0.23115367
4.850291372221439e-10	2.156368e-09	1.3024627e-09	0.8205696	-2.0111909e-17	0.2311534
4.875471762856798e-10	2.0082205e-09	9.38267e-10	0.8205696	-2.0111907e-17	0.23115392
4.900158580618966e-10	2.2386721e-09	7.901196e-10	0.8205696	-2.0111907e-17	0.23115392
4.925339030789135e-10	2.0246813e-09	1.1563729e-09	0.8205696	-2.011191e-17	0.2311534
4.950025609379712e-10	2.2715938e-09	1.8045179e-09	0.8205697	-2.0111909e-17	0.23115367
4.975206009550751e-10	1.777769e-09	1.0864144e-09	0.8205696	-2.0111909e-17	0.2311534
5.000386560639808e-10	2.518506e-09	1.2715987e-09	0.82056963	-2.0111909e-17	0.23115417
5.025073221889887e-10	2.353898e-09	1.9094557e-09	0.8205697	-2.011191e-17	0.23115367
5.05025349528677e-10	2.2386721e-09	2.6522504e-09	0.8205696	-2.0111909e-17	0.2311534
5.07543380429563e-10	2.3045155e-09	2.3600706e-09	0.8205696	-2.0111907e-17	0.23115446
5.100120251023721e-10	1.7119257e-09	2.1069855e-09	0.8205696	-2.011191e-17	0.23115367
5.125300576689413e-10	1.1687186e-09	1.316866e-09	0.8205696	-2.0111907e-17	0.2311534
5.150480944065009e-10	1.1851794e-09	1.3394996e-09	0.8205696	-2.0111907e-17	0.23115367
5.175167551005816e-10	1.2345618e-09	1.5452599e-09	0.82056963	-2.011191e-17	0.23115392
5.200347840540859e-10	1.777769e-09	1.5925847e-09	0.8205696	-2.0111909e-17	0.23115392
5.225034471443588e-10	2.0411421e-09	1.088472e-09	0.8205696	-2.011191e-17	0.23115392
5.25021466718062e-10	2.3045155e-09	1.0432047e-09	0.82056963	-2.0111907e-17	0.23115315
5.275394999235957e-10	2.897105e-09	9.753038e-10	0.8205697	-2.0111909e-17	0.23115367
5.300081351382315e-10	2.6008102e-09	1.4650133e-09	0.8205696	-2.0111907e-17	0.23115367
5.325261679592035e-10	2.6995752e-09	2.2263265e-09	0.8205696	-2.0111907e-17	0.2311534
5.350442061260177e-10	2.6748839e-09	2.234557e-09	0.8205697	-2.0111907e-17	0.23115392
5.375128589083307e-10	2.3045155e-09	2.1069855e-09	0.8205696	-2.0111907e-17	0.23115417
5.400308859877441e-10	1.679004e-09	2.2263265e-09	0.8205696	-2.0111909e-17	0.23115367
5.425489087524226e-10	1.5143958e-09	1.5267414e-09	0.8205696	-2.0111909e-17	0.23115367
5.45017556894215e-10	1.4156308e-09	1.3209811e-09	0.82056963	-2.0111909e-17	0.23115315
5.475355760658872e-10	1.8271515e-09	9.629583e-10	0.8205696	-2.0111909e-17	0.23115417
5.500042312184775e-10	2.732497e-09	8.127532e-10	0.8205696	-2.0111907e-17	0.23115367
5.525222392427021e-10	3.0617133e-09	1.1851794e-09	0.8205696	-2.0111907e-17	0.23115367
5.550402708720717e-10	2.9629483e-09	1.5822967e-09	0.8205696	-2.0111907e-17	0.23115367
5.575089207917585e-10	2.1234463e-09	1.3333268e-09	0.8205696	-2.011191e-17	0.23115367
5.600269236275546e-10	2.1892896e-09	1.6501976e-09	0.8205696	-2.0111907e-17	0.2311534
5.625449471375999e-10	2.0246813e-09	8.39502e-10	0.8205696	-2.0111907e-17	0.23115367
5.650135933773452e-10	1.7119257e-09	9.1357577e-10	0.8205697	-2.0111907e-17	0.23115367
5.67531612569149e-10	2.3045155e-09	6.748938e-10	0.82056963	-2.0111909e-17	0.23115417
5.700002599921851e-10	2.5843494e-09	1.1604882e-09	0.8205696	-2.0111909e-17	0.23115392
5.725182796753411e-10	2.3209763e-09	1.7283865e-09	0.8205696	-2.011191e-17	0.23115315
5.750363003904553e-10	2.0082205e-09	1.7386745e-09	0.8205697	-2.0111909e-17	0.23115392
5.775049450951873e-10	1.7613082e-09	1.9711837e-09	0.8205697	-2.0111907e-17	0.23115367
5.800229721162695e-10	1.6296217e-09	1.8312667e-09	0.8205696	-2.0111907e-17	0.23115417
5.825409833419356e-10	1.9423774e-09	1.7098681e-09	0.8205696	-2.0111909e-17	0.23115417
5.8500961681096e-10	2.2715938e-09	2.2530753e-09	0.8205696	-2.0111907e-17	0.23115392
5.875276363049653e-10	2.1234463e-09	2.2715938e-09	0.8205697	-2.0111909e-17	0.23115417
5.900456476890514e-10	1.8929949e-09	2.5843494e-09	0.8205696	-2.0111907e-17	0.23115367
5.925142983402622e-10	2.2386721e-09	2.3024578e-09	0.8205696	-2.0111909e-17	0.23115315
5.950323027180815e-10	2.0082205e-09	1.4547253e-09	0.8205697	-2.011191e-17	0.23115392
5.975009562763404e-10	2.617271e-09	8.888845e-10	0.8205697	-2.0111907e-17	0.2311534
6.000189682958403e-10	2.9629483e-09	1.3292115e-09	0.8205697	-2.0111907e-17	0.23115315
6.025369972638618e-10	3.2263217e-09	2.3477251e-09	0.8205696	-2.011191e-17	0.23115367
6.050056238748427e-10	2.5843494e-09	2.6419622e-09	0.8205696	-2.0111907e-17	0.23115367
6.075236365739706e-10	2.1728288e-09	2.8394922e-09	0.8205696	-2.0111909e-17	0.23115392
6.100416546764052e-10	1.3827093e-09	2.1892896e-09	0.8205696	-2.0111907e-17	0.23115367
6.125102934782358e-10	1.3991701e-09	1.4485525e-09	0.8205696	-2.0111907e-17	0.23115315
6.150282875430275e-10	1.5473175e-09	1.4814742e-09	0.8205696	-2.0111909e-17	0.23115392
6.175462997431184e-10	2.0740638e-09	1.5473175e-09	0.8205696	-2.0111909e-17	0.23115367
6.200149516622887e-10	2.6501927e-09	1.316866e-09	0.8205696	-2.0111907e-17	0.23115417
6.225329482416269e-10	2.0905246e-09	1.5102807e-09	0.8205697	-2.0111909e-17	0.23115417
6.250016057055826e-10	2.1069855e-09	1.8436124e-09	0.8205696	-2.0111907e-17	0.23115367
6.275196046402257e-10	2.419741e-09	1.4156308e-09	0.8205697	-2.011191e-17	0.23115417
6.300376000784312e-10	2.3209763e-09	1.8415547e-09	0.8205696	-2.0111907e-17	0.23115417
6.325062349657679e-10	2.4032802e-09	2.3045155e-09	0.8205696	-2.0111909e-17	0.2311534
6.350242637518576e-10	1.8929949e-09	2.5308518e-09	0.8205696	-2.0111909e-17	0.23115446
6.375422569549031e-10	1.4485525e-09	2.037027e-09	0.8205696	-2.0111907e-17	0.23115367
6.400109133104418e-10	1.7119257e-09	2.0041053e-09	0.8205696	-2.0111907e-17	0.23115367
6.425289215066114e-10	1.6460824e-09	1.6810617e-09	0.8205696	-2.011191e-17	0.23115392
6.450469256335111e-10	2.3045155e-09	2.0905246e-09	0.8205696	-2.0111909e-17	0.23115392
6.475155514982638e-10	2.0740638e-09	1.9752988e-09	0.8205696	-2.0111907e-17	0.23115392
6.500335642977271e-10	2.5020452e-09	2.3312643e-09	0.8205696	-2.0111907e-17	0.2311534
6.525021905148582e-10	2.9464875e-09	1.7119257e-09	0.8205696	-2.0111909e-17	0.23115367
6.550201946939563e-10	2.3209763e-09	2.5020452e-09	0.8205697	-2.0111907e-17	0.23115417
6.575382071296509e-10	2.4691236e-09	2.7036904e-09	0.8205696	-2.0111907e-17	0.23115367
6.600068350852071e-10	2.5514277e-09	2.3703588e-09	0.8205696	-2.0111907e-17	0.23115367
6.6252484702274e-10	2.1234463e-09	2.3312643e-09	0.82056963	-2.0111907e-17	0.23115392
6.650428402607107e-10	2.3703588e-09	1.5514326e-09	0.8205696	-2.0111907e-17	0.23115367
6.67511484039044e-10	2.353898e-09	9.69131e-10	0.8205696	-2.011191e-17	0.23115392
6.700294773393667e-10	2.633732e-09	1.0699536e-09	0.82056963	-2.0111907e-17	0.23115367
6.725474852087596e-10	3.4238514e-09	2.2510178e-09	0.8205696	-2.0111907e-17	0.23115367
6.750161134396094e-10	3.3250864e-09	2.2139808e-09	0.8205696	-2.0111909e-17	0.23115392
6.775341170352294e-10	2.6831144e-09	2.3868196e-09	0.8205696	-2.0111907e-17	0.2311534
6.800027654211737e-10	2.1728288e-09	2.1748865e-09	0.8205696	-2.0111909e-17	0.2311534
6.825207696090205e-10	1.6131608e-09	2.5020452e-09	0.8205696	-2.0111907e-17	0.23115392
6.850387726723231e-10	1.3991701e-09	2.2386721e-09	0.8205696	-2.0111907e-17	0.23115367
6.875073938778421e-10	1.7448474e-09	1.9135709e-09	0.8205696	-2.0111909e-17	0.23115392
6.900253962407314e-10	1.6296217e-09	2.415626e-09	0.8205696	-2.0111909e-17	0.23115392
6.925434104096319e-10	9.547279e-10	1.8436124e-09	0.8205696	-2.0111909e-17	0.23115367
6.950120530195931e-10	1.1851794e-09	8.806541e-10	0.8205697	-2.0111907e-17	0.23115417
6.975300390720109e-10	1.7119257e-09	9.218062e-10	0.8205696	-2.0111907e-17	0.23115417
7.000480430514162e-10	2.0411421e-09	1.2345618e-09	0.8205697	-2.0111907e-17	0.23115417
7.025166623356425e-10	2.353898e-09	1.0617232e-09	0.8205696	-2.0111907e-17	0.23115392
7.050346748410093e-10	2.7654186e-09	1.2139858e-09	0.8205696	-2.011191e-17	0.2311534
7.075033018144109e-10	2.0411421e-09	1.4279765e-09	0.8205696	-2.0111909e-17	0.23115417
7.100213095059466e-10	2.3374371e-09	8.806541e-10	0.8205696	-2.0111909e-17	0.23115417
7.125393139441438e-10	2.2715938e-09	6.58433e-10	0.82056963	-2.0111907e-17	0.23115417
7.150079546811211e-10	2.5843494e-09	1.4938198e-09	0.8205696	-2.0111907e-17	0.23115392
7.175259421506757e-10	2.6501927e-09	9.0534535e-10	0.8205696	-2.0111909e-17	0.23115392
7.200439414398534e-10	3.1193261e-09	1.0534927e-09	0.8205696	-2.0111907e-17	0.23115392
7.225125568852417e-10	3.2921648e-09	1.736617e-09	0.8205696	-2.0111909e-17	0.23115446
7.250305699699216e-10	2.8312617e-09	2.0205662e-09	0.8205696	-2.0111907e-17	0.23115392
7.27548565170392e-10	2.6995752e-09	1.716041e-09	0.8205697	-2.0111909e-17	0.23115417
7.3001719355906e-10	2.9135658e-09	1.1419697e-09	0.8205696	-2.0111909e-17	0.23115392
7.325351957963827e-10	2.99587e-09	9.526702e-10	0.8205696	-2.0111907e-17	0.23115367
7.350038343372026e-10	2.6008102e-09	1.4917622e-09	0.8205696	-2.0111907e-17	0.23115367
7.375218256928485e-10	2.8806442e-09	1.6337368e-09	0.8205696	-2.0111909e-17	0.23115417
7.400398086576628e-10	2.5678886e-09	1.757193e-09	0.8205696	-2.0111907e-17	0.23115392
7.425084257991293e-10	2.0740638e-09	1.29629e-09	0.82056963	-2.0111907e-17	0.23115446
7.450264140421574e-10	2.0246813e-09	1.1069904e-09	0.82056963	-2.0111907e-17	0.23115417
7.475444349369735e-10	2.716036e-09	1.6501976e-09	0.8205696	-2.0111907e-17	0.23115446
7.500130640017322e-10	2.7818794e-09	2.2613058e-09	0.8205697	-2.0111909e-17	0.23115367
7.525310575741383e-10	2.633732e-09	2.4238564e-09	0.8205697	-2.0111907e-17	0.23115392
7.550490537094716e-10	2.3703588e-09	2.2469024e-09	0.8205696	-2.0111907e-17	0.23115417
7.575176808112784e-10	2.5431974e-09	1.8312667e-09	0.8205696	-2.0111909e-17	0.23115367
7.600356822281965e-10	2.3045155e-09	2.0185085e-09	0.8205696	-2.0111909e-17	0.2311534
7.625043049755455e-10	2.0740638e-09	2.0534878e-09	0.8205697	-2.0111907e-17	0.23115392
7.650223049583697e-10	2.0246813e-09	1.7119257e-09	0.8205696	-2.0111909e-17	0.23115367
7.675402955852828e-10	2.2715938e-09	1.8436124e-09	0.8205697	-2.0111907e-17	0.23115446
7.700089105031098e-10	3.0123308e-09	1.1357969e-09	0.8205696	-2.0111907e-17	0.23115392
7.725269026825987e-10	3.358008e-09	1.4485525e-09	0.8205696	-2.0111909e-17	0.23115367
7.750449198944359e-10	3.3086256e-09	2.234557e-09	0.8205696	-2.0111909e-17	0.23115392
7.775135356890686e-10	2.0082205e-09	2.4814693e-09	0.8205696	-2.0111907e-17	0.23115392
7.800315295246233e-10	1.7119257e-09	1.8785915e-09	0.8205696	-2.0111909e-17	0.23115367
7.825001603600449e-10	1.9094557e-09	2.0822943e-09	0.8205696	-2.0111909e-17	0.23115392
7.850181529656354e-10	2.7489577e-09	1.5390871e-09	0.8205696	-2.0111907e-17	0.23115392
7.875361477476548e-10	2.6995752e-09	2.3004e-09	0.8205696	-2.0111909e-17	0.23115417
7.900047860068522e-10	2.732497e-09	2.6810567e-09	0.8205697	-2.0111907e-17	0.23115392
7.925227871028699e-10	2.4691236e-09	2.3148035e-09	0.8205696	-2.0111907e-17	0.23115367
7.950407983424427e-10	2.6995752e-09	1.4444373e-09	0.8205696	-2.0111907e-17	0.23115392
7.975094173262387e-10	2.8312617e-09	2.2880546e-09	0.8205696	-2.0111909e-17	0.23115392
8.00027414413428e-10	2.5678886e-09	2.0946398e-09	0.8205696	-2.0111909e-17	0.23115446
8.025454143218086e-10	2.1069855e-09	2.2386721e-09	0.8205696	-2.0111909e-17	0.23115446
8.050140448019992e-10	1.8436124e-09	2.2160385e-09	0.8205696	-2.0111909e-17	0.23115417
8.075320290051313e-10	2.2222113e-09	1.8436124e-09	0.8205697	-2.0111907e-17	0.23115367
8.10000651773022e-10	1.9259165e-09	1.89711e-09	0.8205696	-2.011191e-17	0.23115417
8.125186518584222e-10	2.0082205e-09	1.3004051e-09	0.8205696	-2.0111907e-17	0.23115392
8.150366482582163e-10	1.876534e-09	1.4238613e-09	0.8205696	-2.0111907e-17	0.23115446
8.175052791200879e-10	2.2222113e-09	1.4362069e-09	0.8205696	-2.011191e-17	0.23115392
8.200232676512362e-10	1.8106907e-09	1.7530778e-09	0.8205696	-2.0111907e-17	0.23115392
8.225412629917076e-10	1.958838e-09	1.627564e-09	0.8205696	-2.0111907e-17	0.23115367
8.250098782494488e-10	1.5967e-09	1.5452599e-09	0.8205696	-2.0111907e-17	0.23115367
8.275278678653091e-10	1.8600731e-09	1.316866e-09	0.8205696	-2.0111909e-17	0.23115446
8.300458644198502e-10	1.8106907e-09	1.3436148e-09	0.8205696	-2.0111907e-17	0.23115417
8.325144827966558e-10	1.6625432e-09	1.1646033e-09	0.8205696	-2.0111907e-17	0.23115392
8.35032474522528e-10	2.2715938e-09	1.316866e-09	0.8205696	-2.0111907e-17	0.23115446
8.375010967162633e-10	2.4855844e-09	1.5143958e-09	0.8205696	-2.011191e-17	0.23115417
8.400191131225298e-10	3.0287917e-09	1.1028752e-09	0.82056963	-2.0111907e-17	0.23115392
8.4253709756698e-10	2.7407272e-09	7.674859e-10	0.8205696	-2.0111909e-17	0.23115392
8.450057262836886e-10	2.419741e-09	1.5967e-09	0.8205696	-2.0111907e-17	0.23115392
8.475237093676517e-10	2.1728288e-09	9.218062e-10	0.8205696	-2.011191e-17	0.23115446
8.500417180890666e-10	2.7654186e-09	1.0534927e-09	0.8205696	-2.0111907e-17	0.23115367
8.525103317028838e-10	3.3086256e-09	9.917647e-10	0.8205697	-2.0111909e-17	0.23115392
8.550283278183764e-10	3.1687086e-09	1.7180986e-09	0.8205696	-2.0111907e-17	0.23115446
8.575463229084997e-10	2.436202e-09	2.2921698e-09	0.8205696	-2.0111909e-17	0.23115392
8.600149369898483e-10	2.436202e-09	1.89711e-09	0.8205696	-2.0111909e-17	0.23115367
8.625329270317739e-10	2.6501927e-09	1.4526678e-09	0.8205697	-2.0111907e-17	0.23115392
8.650015612988499e-10	3.1769392e-09	1.9012252e-09	0.8205696	-2.011191e-17	0.23115417
8.675195562261973e-10	2.5843494e-09	2.8477225e-09	0.8205696	-2.0111907e-17	0.23115446
8.700375583629724e-10	2.534967e-09	2.7098632e-09	0.8205696	-2.0111907e-17	0.23115446
8.72506175450793e-10	2.0246813e-09	2.5802342e-09	0.8205696	-2.011191e-17	0.23115367