# t (s)	mx ()	my ()	mz ()
0	1.1687186e-09	2.4691235e-10	0.97953594
1.020859528993731e-12	4.026729e-09	1.2839443e-09	0.9769794
2.0218151924015565e-12	6.5596386e-09	3.8189114e-09	0.9745654
3.013880234954475e-12	8.271564e-09	7.3744495e-09	0.97227263
4.005848287650892e-12	8.9546885e-09	1.14485035e-08	0.9701131
5.0461667827292615e-12	8.238643e-09	1.5950539e-08	0.96803457
6.035307893820972e-12	6.3374173e-09	2.0938169e-08	0.9662788
7.025412262271979e-12	2.9629483e-09	2.6238554e-08	0.964781
8.014645992301285e-12	-2.99587e-09	3.0814665e-08	0.96358305
9.004044315657524e-12	-9.942338e-09	3.4732338e-08	0.96271414
1.0042589028431204e-11	-1.8827068e-08	3.6905167e-08	0.96217656
1.1031520933469232e-11	-2.814801e-08	3.7267306e-08	0.962029
1.2020316908971276e-11	-3.7859895e-08	3.5292008e-08	0.96223474
1.3008970888629395e-11	-4.7077958e-08	3.1999843e-08	0.9627845
1.4046935029683572e-11	-5.6230174e-08	2.617271e-08	0.96371484
1.5035340791011848e-11	-6.449351e-08	1.837028e-08	0.964914
1.6023686099391862e-11	-7.117661e-08	8.230412e-09	0.9663888
1.701191303801241e-11	-7.637823e-08	-4.213971e-09	0.9681003
1.8000114453821557e-11	-7.95387e-08	-1.8897026e-08	0.9699962
1.9037646472874067e-11	-7.973623e-08	-3.6477186e-08	0.97210777
2.0025708878864484e-11	-7.677328e-08	-5.4682857e-08	0.9741307
2.1013741405163722e-11	-6.966221e-08	-7.486383e-08	0.97602135
2.2001724736758125e-11	-5.754704e-08	-9.474851e-08	0.9775742
2.3039090120942624e-11	-3.911092e-08	-1.149624e-07	0.978513
2.4027008429964577e-11	-1.5604861e-08	-1.3076479e-07	0.97830486
2.5014923279293457e-11	1.28723645e-08	-1.4222152e-07	0.97646487
2.6002794684327207e-11	4.4345462e-08	-1.4590874e-07	0.97241867
2.7040054837754827e-11	7.769509e-08	-1.3965364e-07	0.9653491
2.8027872253148835e-11	1.0557973e-07	-1.2503642e-07	0.95586693
2.901569967855052e-11	1.2740678e-07	-1.0653446e-07	0.94403666
3.000347539439027e-11	1.4343962e-07	-8.823002e-08	0.9304782
3.104064558567428e-11	1.5673997e-07	-7.124245e-08	0.9152653
3.202838137575357e-11	1.6513499e-07	-5.10944e-08	0.90083456
3.3016106766969807e-11	1.6434487e-07	-2.278178e-08	0.88735473
3.400383145956966e-11	1.5433669e-07	1.4748899e-08	0.87531316
3.504094324892044e-11	1.3738205e-07	5.7020294e-08	0.86426294
3.602864688593569e-11	1.1996649e-07	9.2312305e-08	0.85507876
3.70163657897773e-11	1.02978916e-07	1.2022986e-07	0.8470165
3.800404719153522e-11	8.8723844e-08	1.4090466e-07	0.839946
3.90410552565354e-11	7.545642e-08	1.5516795e-07	0.8334947
4.002857341033398e-11	6.365401e-08	1.6289631e-07	0.8282114
4.101604235092025e-11	5.2394803e-08	1.6702798e-07	0.8237128
4.200347782689522e-11	4.0444245e-08	1.6750535e-07	0.8199476
4.304031991146188e-11	2.7172705e-08	1.6521729e-07	0.81672996
4.402781023326458e-11	1.4300341e-08	1.597667e-07	0.81431556
4.501528913425545e-11	1.3230388e-09	1.5351468e-07	0.81248146
4.600282326148609e-11	-1.1693358e-08	1.4514744e-07	0.81117016
4.703972729774757e-11	-2.3927866e-08	1.3513102e-07	0.8102955
4.8027247770823145e-11	-3.3798187e-08	1.2466606e-07	0.809891
4.9014785944452163e-11	-4.2543e-08	1.13555e-07	0.809865
5.00022952377479e-11	-4.9835144e-08	1.02888386e-07	0.81018263
5.1039194199887606e-11	-5.473224e-08	9.164975e-08	0.81084764
5.202668705498424e-11	-5.7501776e-08	8.127532e-08	0.81175685
5.3014205139835326e-11	-5.8600534e-08	7.168689e-08	0.8128952
5.400169928217006e-11	-5.853469e-08	6.277335e-08	0.8142246
5.5038571079038956e-11	-5.6493548e-08	5.4361873e-08	0.8157897
5.602606490187476e-11	-5.3975043e-08	4.772816e-08	0.8174131
5.701357686182469e-11	-5.097917e-08	4.1421607e-08	0.8191437
5.800105877921224e-11	-4.691335e-08	3.642986e-08	0.82096434
5.903794174225986e-11	-4.2699376e-08	3.1664452e-08	0.8229561
6.002544592203062e-11	-3.8485407e-08	2.7785871e-08	0.8249143
6.101295267376923e-11	-3.3810533e-08	2.5201523e-08	0.82691693
6.200045374470704e-11	-2.9036894e-08	2.337437e-08	0.8289483
6.303733551904494e-11	-2.493815e-08	2.2139808e-08	0.8310949
6.402484260885745e-11	-2.1069855e-08	2.1629523e-08	0.83313644
6.501234960890305e-11	-1.7646004e-08	2.1950509e-08	0.83516073
6.604924373707718e-11	-1.4197461e-08	2.2650093e-08	0.8372548
6.70367291373866e-11	-1.1357969e-08	2.3473136e-08	0.8392092
6.80242309700096e-11	-9.102836e-09	2.4296178e-08	0.8411177
6.90117416035202e-11	-7.3579884e-09	2.5580121e-08	0.8429753
7.004860852048921e-11	-6.4032606e-09	2.7061596e-08	0.84486806
7.103612765117267e-11	-5.464994e-09	2.8098627e-08	0.8466144
7.202360830358299e-11	-5.135777e-09	2.9366111e-08	0.84830546
7.3011121515178e-11	-5.152238e-09	3.0287918e-08	0.849942
7.404798622241962e-11	-5.2016205e-09	3.1473096e-08	0.85160255
7.503548349493294e-11	-5.514376e-09	3.252659e-08	0.8531305
7.60229849644701e-11	-6.485565e-09	3.3250863e-08	0.8546079
7.701047648882836e-11	-7.703666e-09	3.374469e-08	0.8560365
7.804734893660018e-11	-8.362099e-09	3.4633576e-08	0.85748583
7.903485819922142e-11	-8.526707e-09	3.516032e-08	0.8588205
8.002233924699623e-11	-9.810651e-09	3.575291e-08	0.8601129
8.100984863502129e-11	-1.1753029e-08	3.63455e-08	0.86136574
8.204669863495361e-11	-1.297113e-08	3.595044e-08	0.8626415
8.30342158300656e-11	-1.438676e-08	3.6049205e-08	0.8638221
8.402167925272432e-11	-1.6065764e-08	3.63455e-08	0.86497223
8.500920308856469e-11	-1.8073985e-08	3.6213812e-08	0.8660947
8.604606090190771e-11	-2.0049283e-08	3.63455e-08	0.8672471
8.703355353280958e-11	-2.1283846e-08	3.6082128e-08	0.8683225
8.802104356222119e-11	-2.2518408e-08	3.5390773e-08	0.8693795
8.900854541611896e-11	-2.3934039e-08	3.410683e-08	0.87042046
9.004540979940268e-11	-2.5349669e-08	3.311918e-08	0.87149906
9.103290196093372e-11	-2.6666536e-08	3.2131528e-08	0.87251484
9.202039771745058e-11	-2.8016323e-08	3.1078038e-08	0.8735219
9.300789076665911e-11	-2.9234425e-08	3.0419603e-08	0.8745224
9.40447553321798e-11	-3.0386683e-08	2.956364e-08	0.875568
9.503226238721293e-11	-3.1275565e-08	2.8510147e-08	0.8765613
9.601974244395466e-11	-3.2493666e-08	2.8049245e-08	0.877554
9.700724542572417e-11	-3.410683e-08	2.7127438e-08	0.8785485
9.804410797152305e-11	-3.614797e-08	2.6337318e-08	0.879597
9.903160080551262e-11	-3.7629444e-08	2.5020453e-08	0.88060135
1.000191043028611e-10	-3.8913388e-08	2.376943e-08	0.8816139
1.010065843508818e-10	-4.0230255e-08	2.1991662e-08	0.88263667
1.0204347271222258e-10	-4.0888686e-08	2.0806482e-08	0.8837241
1.0303096003354236e-10	-4.2468926e-08	1.9357929e-08	0.8847749
1.0401846050433812e-10	-4.3983324e-08	1.817275e-08	0.8858431
1.0500595459797862e-10	-4.5497718e-08	1.6790041e-08	0.88693106
1.0604282824849026e-10	-4.753886e-08	1.4814741e-08	0.8880976
1.0703032744078714e-10	-4.98763e-08	1.27736e-08	0.8892345
1.0801781972384027e-10	-5.188452e-08	1.0732458e-08	0.8903995
1.0900532094637264e-10	-5.42878e-08	8.427942e-09	0.8915959
1.1004219445496844e-10	-5.6855686e-08	6.7818595e-09	0.8928892
1.110296930478571e-10	-5.9160204e-08	4.0822843e-09	0.8941601
1.1201718788496847e-10	-6.182685e-08	7.2427625e-10	0.895473
1.1300469595618204e-10	-6.340709e-08	-2.897105e-09	0.89683187
1.1404156250791509e-10	-6.5843295e-08	-7.637823e-09	0.8983128
1.1502907104583669e-10	-6.775275e-08	-1.1456733e-08	0.8997797
1.1601656201365304e-10	-6.976097e-08	-1.659251e-08	0.9013065
1.1700407290726977e-10	-7.176919e-08	-2.1201542e-08	0.90289855
1.1804094040531171e-10	-7.318482e-08	-2.7127438e-08	0.9046463
1.1902844918818455e-10	-7.492967e-08	-3.397514e-08	0.9063893
1.2001595213521108e-10	-7.5983166e-08	-4.0538897e-08	0.9082148
1.210034567212866e-10	-7.6707444e-08	-4.793392e-08	0.9101287
1.2204033207297096e-10	-7.6937894e-08	-5.6345403e-08	0.9122401
1.230278509498631e-10	-7.7168345e-08	-6.531655e-08	0.9143534
1.240153482780251e-10	-7.690497e-08	-7.492967e-08	0.9165716
1.250028647649033e-10	-7.5785636e-08	-8.5217685e-08	0.9188982
1.2603973902298442e-10	-7.334943e-08	-9.7777296e-08	0.92145985
1.2702725322484342e-10	-6.953052e-08	-1.11406855e-07	0.9240117
1.2801475887443775e-10	-6.413137e-08	-1.2536563e-07	0.92666775
1.2900228294034485e-10	-5.609849e-08	-1.403779e-07	0.92941767
1.3003918202334508e-10	-4.5201425e-08	-1.5703627e-07	0.93238586
1.3102668504368677e-10	-3.160478e-08	-1.7356294e-07	0.93525946
1.3201421390548087e-10	-1.4617212e-08	-1.9041882e-07	0.9381343
1.3300172040733143e-10	6.5843295e-09	-2.0648459e-07	0.9409469
1.3403861090977273e-10	3.3020413e-08	-2.230771e-07	0.94373405
1.350261508549282e-10	6.314372e-08	-2.3710172e-07	0.94609797
1.3601366468458708e-10	9.7349314e-08	-2.4822924e-07	0.94799954
1.370011981657495e-10	1.3616393e-07	-2.5626213e-07	0.94919974
1.3803810530990188e-10	1.8138182e-07	-2.5993288e-07	0.949358
1.3902562866393054e-10	2.2827871e-07	-2.5553783e-07	0.94804287
1.4001315578237116e-10	2.7647806e-07	-2.4230334e-07	0.94482785
1.4100069689660735e-10	3.2414655e-07	-2.1583433e-07	0.93925464
1.420376082975307e-10	3.7071422e-07	-1.7224606e-07	0.93050575
1.4302513289446346e-10	4.0580048e-07	-1.13793675e-07	0.91938114
1.440126707524572e-10	4.2768514e-07	-4.1744652e-08	0.905962
1.4500020335403636e-10	4.3298553e-07	3.2921648e-08	0.8911767
1.4603710959544663e-10	4.292983e-07	1.0179374e-07	0.8754585
1.4702463964998606e-10	4.2324072e-07	1.5683874e-07	0.8611579
1.4801217212098657e-10	4.0921609e-07	2.0931584e-07	0.8477129
1.4904907342743764e-10	3.7794052e-07	2.629452e-07	0.8343952
1.5003663090883441e-10	3.2947986e-07	3.099244e-07	0.8223647
1.5102422489659572e-10	2.671921e-07	3.488378e-07	0.8109458
1.5201188266092262e-10	1.9647639e-07	3.7565246e-07	0.80016583
1.530489516397786e-10	1.1832041e-07	3.9055158e-07	0.78958607
1.5403664007971006e-10	4.553064e-08	3.9183345e-07	0.78026336
1.550242775828311e-10	-2.2320878e-08	3.806401e-07	0.77171445
1.560117515013469e-10	-8.209836e-08	3.5825337e-07	0.7639645
1.5704850950476425e-10	-1.3381005e-07	3.2536465e-07	0.7567004
1.5803592673200032e-10	-1.7197034e-07	2.876035e-07	0.7506171
1.5902335721419085e-10	-1.98641e-07	2.4651732e-07	0.74533665
1.6001083359781804e-10	-2.1539812e-07	2.037027e-07	0.74082655
1.61047703181173e-10	-2.2268203e-07	1.5993336e-07	0.73687154
1.620351924471927e-10	-2.2235281e-07	1.2036155e-07	0.733806
1.630227190041457e-10	-2.1654215e-07	8.440288e-08	0.7313944
1.6401019628337015e-10	-2.0523356e-07	5.254295e-08	0.7296124
1.650470735251858e-10	-1.9015545e-07	2.4230333e-08	0.7283861
1.6603456057861883e-10	-1.7380161e-07	1.5802392e-09	0.72778887
1.6702203550363367e-10	-1.5721733e-07	-1.5934077e-08	0.7276967
1.680095407573755e-10	-1.4069066e-07	-2.9431954e-08	0.72805715
1.6904639734574323e-10	-1.2367018e-07	-3.9242604e-08	0.7288706
1.7003390270947873e-10	-1.09168184e-07	-4.583928e-08	0.73001915
1.710213910044007e-10	-9.622998e-08	-5.0040907e-08	0.73150253
1.7200889845043097e-10	-8.450987e-08	-5.2016205e-08	0.73329854
1.7304577919041637e-10	-7.402433e-08	-5.3596445e-08	0.7354995
1.7403328190454146e-10	-6.553054e-08	-5.3859818e-08	0.7378764
1.7502080243199747e-10	-5.7975022e-08	-5.432072e-08	0.7405065
1.76008312267224e-10	-5.1077937e-08	-5.432072e-08	0.743367
1.7704521998172027e-10	-4.490513e-08	-5.432072e-08	0.74659187
1.7803275500370628e-10	-3.8847546e-08	-5.372813e-08	0.74984777
1.7902026082812441e-10	-3.318502e-08	-5.293801e-08	0.7532583
1.8000779133021219e-10	-2.7637723e-08	-5.2147893e-08	0.75680095
1.8104468315051505e-10	-2.2386722e-08	-5.10944e-08	0.7606394
1.820322072898744e-10	-1.8271516e-08	-4.98763e-08	0.76438856
1.8301972678742664e-10	-1.34649545e-08	-4.8246676e-08	0.7682117
1.840072428027325e-10	-9.316826e-09	-4.569525e-08	0.77209336
1.8504412942678695e-10	-5.530837e-09	-4.293806e-08	0.7762161
1.8603165987232506e-10	-2.6666536e-09	-4.0273463e-08	0.7801731
1.8701917123918055e-10	-5.2674637e-10	-3.7250846e-08	0.7841453
1.8800669523885224e-10	2.2715938e-09	-3.4115057e-08	0.78811884
1.890435858410204e-10	4.7736393e-09	-3.0436063e-08	0.79227656
1.9003110277842e-10	5.8600533e-09	-2.6629499e-08	0.79620767
1.9101862009166633e-10	6.7818595e-09	-2.3104825e-08	0.80009574
1.9200613601665123e-10	7.539057e-09	-1.8617193e-08	0.8039269
1.9304302729129047e-10	7.045233e-09	-1.4485526e-08	0.80787283
1.9403054409564654e-10	6.1563483e-09	-1.087649e-08	0.81154436
1.9501804688775943e-10	4.938247e-09	-6.9382375e-09	0.8151193
1.960055531427582e-10	3.753068e-09	-3.9773465e-09	0.81858724
1.9704243450025112e-10	2.5678886e-09	-1.3497876e-09	0.8221033
1.980299446029653e-10	2.9629485e-10	1.0349743e-09	0.82532495
1.9901745487709392e-10	-1.2510226e-09	3.094635e-09	0.8284168
2.000049598893238e-10	-2.6008102e-09	5.135777e-09	0.83137506
2.0104183257926268e-10	-4.3456576e-09	7.761279e-09	0.83433485
2.020293336790421e-10	-6.288035e-09	9.514356e-09	0.83701426
2.0301683368101383e-10	-8.263334e-09	1.0880605e-08	0.8395585
2.0400433636511467e-10	-1.06995355e-08	1.10945955e-08	0.84197044
2.0504120182338986e-10	-1.257607e-08	1.198348e-08	0.84436494
2.0602869719874237e-10	-1.4123387e-08	1.1917637e-08	0.8465195
2.0701619986892072e-10	-1.5777701e-08	1.1820929e-08	0.8485572
2.080036823460151e-10	-1.6790041e-08	1.158842e-08	0.85048455
2.090405556361562e-10	-1.8106906e-08	1.0765379e-08	0.8523976
2.1002804451472382e-10	-1.9621302e-08	9.97526e-09	0.85412174
2.110155298537427e-10	-2.116862e-08	8.230412e-09	0.85575813
2.120030152910556e-10	-2.2189191e-08	6.9793895e-09	0.857314
2.1303987557902796e-10	-2.337437e-08	5.99174e-09	0.8588691
2.1402736644586754e-10	-2.436202e-08	4.4773443e-09	0.86028224
2.150148481427916e-10	-2.5036913e-08	3.1604783e-09	0.86163586
2.1600234352034863e-10	-2.5613042e-08	9.218062e-10	0.8629363
2.1703919515979076e-10	-2.5645964e-08	-3.950598e-10	0.86425054
2.1802668307774412e-10	-2.5448434e-08	-1.4485525e-09	0.8654591
2.190141738589264e-10	-2.5613042e-08	-3.0287917e-09	0.86663073
2.2000164848780874e-10	-2.5975181e-08	-4.016441e-09	0.8677698
2.2103851064497506e-10	-2.6041024e-08	-6.0575833e-09	0.8689354
2.220259969371964e-10	-2.5859954e-08	-7.341528e-09	0.8700206
2.2301348904923917e-10	-2.538259e-08	-8.559629e-09	0.8710854
2.2400096426913365e-10	-2.5119219e-08	-9.876494e-09	0.8721329
2.2503782886052214e-10	-2.4888767e-08	-1.1456733e-08	0.8732174
2.260253126400798e-10	-2.4230333e-08	-1.27736e-08	0.87423897
2.270128009325871e-10	-2.4065725e-08	-1.3300346e-08	0.8752524
2.2800028576116895e-10	-2.35719e-08	-1.4287996e-08	0.87626016
2.2903713817354374e-10	-2.3012232e-08	-1.5670704e-08	0.877315
2.3002463156271897e-10	-2.2814703e-08	-1.659251e-08	0.8783191
2.3101212083058125e-10	-2.255133e-08	-1.7909377e-08	0.879325
2.3204898512312776e-10	-2.1399071e-08	-2.0148049e-08	0.88038564
2.3303647177444525e-10	-2.077356e-08	-2.2123348e-08	0.8814027
2.340239539015985e-10	-1.9621302e-08	-2.3308527e-08	0.8824286
2.3501144804590434e-10	-1.8666574e-08	-2.4493707e-08	0.8834658
2.360483075828551e-10	-1.738263e-08	-2.5613042e-08	0.8845698
2.3703579301949544e-10	-1.6230373e-08	-2.7061596e-08	0.8856379
2.3802328525140327e-10	-1.4880585e-08	-2.8246774e-08	0.88672477
2.3901076813202104e-10	-1.36624845e-08	-2.9267346e-08	0.8878332
2.400476275351281e-10	-1.27736e-08	-3.058421e-08	0.88902324
2.410351352070425e-10	-1.1555499e-08	-3.1670627e-08	0.8901847
2.420226075643425e-10	-1.0271554e-08	-3.2921648e-08	0.89137644
2.430101142469415e-10	-9.1522185e-09	-3.4501888e-08	0.8926021
2.440469822673098e-10	-7.242763e-09	-3.555538e-08	0.893929
2.4503447275458024e-10	-5.5966805e-09	-3.7662367e-08	0.8952349
2.460219628766128e-10	-3.654303e-09	-3.9242604e-08	0.89658606
2.4700945723663383e-10	-1.9094557e-09	-4.1217906e-08	0.8979866
2.480463190760401e-10	7.2427625e-10	-4.3193204e-08	0.8995152
2.49033830948683e-10	2.99587e-09	-4.4773444e-08	0.90103155
2.500213140619847e-10	5.9588183e-09	-4.648537e-08	0.90261203
2.510088213194212e-10	9.1522185e-09	-4.8197293e-08	0.9042623
2.520456815828943e-10	1.3168659e-08	-5.0831026e-08	0.9060759
2.5303317997012384e-10	1.758016e-08	-5.2540894e-08	0.9078868
2.540206851599479e-10	2.1958739e-08	-5.4386565e-08	0.9097851
2.5500818137685323e-10	2.7687106e-08	-5.5242527e-08	0.91177654
2.560450532593435e-10	3.3283786e-08	-5.669108e-08	0.9139742
2.570325625196386e-10	3.9440135e-08	-5.7744572e-08	0.91617364
2.5802005994768224e-10	4.66829e-08	-5.7415356e-08	0.9184812
2.5900756689135367e-10	5.451825e-08	-5.6822767e-08	0.92089885
2.600444482831664e-10	6.344002e-08	-5.5835116e-08	0.92355555
2.610319439759261e-10	7.2361786e-08	-5.3530602e-08	0.9261939
2.6201947004847775e-10	8.253458e-08	-4.9777533e-08	0.92892843
2.630069661437901e-10	9.2542756e-08	-4.5036817e-08	0.93174237
2.640438584414361e-10	1.04625e-07	-3.792574e-08	0.93475324
2.650313792755144e-10	1.1627926e-07	-2.9366111e-08	0.9376317
2.660188924105175e-10	1.2846027e-07	-1.856781e-08	0.940461
2.6700641375776693e-10	1.4008161e-07	-4.6419526e-09	0.9431558
2.6804330692415096e-10	1.5203217e-07	1.2905287e-08	0.94571036
2.690308220343675e-10	1.625671e-07	3.2477207e-08	0.9477083
2.7001834303873056e-10	1.713901e-07	5.491331e-08	0.9490521
2.710058725189454e-10	1.7764522e-07	8.1505775e-08	0.9494398
2.720427720462384e-10	1.802131e-07	1.1104472e-07	0.9483967
2.730302958297097e-10	1.778016e-07	1.4129972e-07	0.94554955
2.740178273045624e-10	1.6799918e-07	1.7297035e-07	0.94041973
2.750053609780494e-10	1.4901984e-07	2.0418007e-07	0.9326423
2.7604227422134895e-10	1.169377e-07	2.3430337e-07	0.92151684
2.7702979890749134e-10	7.585148e-08	2.5613042e-07	0.90844655
2.7801733056942155e-10	2.9892856e-08	2.6896987e-07	0.8938167
2.790048628078577e-10	-1.2246853e-08	2.7351305e-07	0.8787921
2.8004175621657367e-10	-4.9645845e-08	2.7545542e-07	0.86360365
2.8102929115645873e-10	-8.3489304e-08	2.7285463e-07	0.8500134
2.820168125155081e-10	-1.1812288e-07	2.6060778e-07	0.83719254
2.83004359939187e-10	-1.5170296e-07	2.3749678e-07	0.82502323
2.8404133423867406e-10	-1.8357112e-07	2.0266567e-07	0.8129036
2.850289762519999e-10	-2.0813066e-07	1.6263911e-07	0.80200833
2.8601663807182853e-10	-2.2548038e-07	1.1806526e-07	0.7917906
2.870043333303958e-10	-2.3423753e-07	7.2164255e-08	0.78229815
2.880413631819318e-10	-2.3502766e-07	2.6469005e-08	0.77315646
2.890288403383273e-10	-2.2762028e-07	-1.3300346e-08	0.76526517
2.900162488601656e-10	-2.1370677e-07	-4.793392e-08	0.7581835
2.910036360904006e-10	-1.9459164e-07	-7.61807e-08	0.751917
2.92040444573133e-10	-1.7056706e-07	-9.902832e-08	0.7462053
2.9302791331183024e-10	-1.4569476e-07	-1.1397475e-07	0.74156296
2.940153946438718e-10	-1.2082245e-07	-1.2328334e-07	0.7376546
2.950028985054372e-10	-9.601599e-08	-1.2701172e-07	0.7344379
2.960397720847282e-10	-7.16087e-08	-1.2698291e-07	0.73176986
2.970272739618846e-10	-5.0221974e-08	-1.2339034e-07	0.7298792
2.980147598396542e-10	-3.1884618e-08	-1.17727815e-07	0.7285943
2.9900224382330526e-10	-1.5917617e-08	-1.0982662e-07	0.7278757
3.000391006841778e-10	-2.0740638e-09	-1.00542714e-07	0.72767687
3.0102657752473947e-10	8.312716e-09	-9.086375e-08	0.72796154
3.0201407535538117e-10	1.5522557e-08	-8.204075e-08	0.72865885
3.030015568525493e-10	2.0888786e-08	-7.348112e-08	0.72972804
3.0403842704648095e-10	2.4872305e-08	-6.5382395e-08	0.73121715
3.0502591878273575e-10	2.7637723e-08	-5.833716e-08	0.73295957
3.0601341781602356e-10	2.9415492e-08	-5.2016205e-08	0.7349985
3.070009260877288e-10	3.0485445e-08	-4.6102652e-08	0.7373155
3.080378125904257e-10	3.1785852e-08	-4.1020375e-08	0.7400255
3.090253178988957e-10	3.2296136e-08	-3.6625334e-08	0.74284726
3.100128338941721e-10	3.3283786e-08	-3.251013e-08	0.7458795
3.110003475195682e-10	3.331671e-08	-2.8641834e-08	0.7490968
3.1203724207053637e-10	3.3728227e-08	-2.4625393e-08	0.75264734
3.1302475626307e-10	3.3678848e-08	-2.1300307e-08	0.75616837
3.140122806572479e-10	3.3415475e-08	-1.7810612e-08	0.75980365
3.150491567586608e-10	3.2855805e-08	-1.4024622e-08	0.7637224
3.1603668178076825e-10	3.1835235e-08	-1.12921255e-08	0.7675338
3.1702419191975236e-10	3.0617134e-08	-8.526707e-09	0.7714062
3.1801171040305646e-10	2.9300267e-08	-6.0246617e-09	0.7753252
3.190485977451788e-10	2.7489577e-08	-4.213971e-09	0.7794748
3.2003610609183155e-10	2.5975181e-08	-2.2386721e-09	0.78344524
3.210236172820853e-10	2.4403173e-08	-9.3003655e-10	0.7874197
3.2201113401108453e-10	2.2715938e-08	3.7036854e-10	0.7913833
3.2304801505600233e-10	2.0872326e-08	1.3827093e-09	0.79551816
3.240355289154409e-10	1.8929947e-08	2.8518379e-09	0.79941493
3.2502303416992514e-10	1.6329137e-08	3.7036854e-09	0.8032569
3.2601053787711424e-10	1.4222152e-08	4.0493626e-09	0.80703044
3.2704742551111436e-10	1.1456733e-08	4.016441e-09	0.81090444
3.280349225711009e-10	9.514356e-09	3.934137e-09	0.81449723
3.29022437057341e-10	7.1769195e-09	3.6378422e-09	0.81798476
3.300099354778578e-10	5.3991505e-09	3.432082e-09	0.8213575
3.3104681381544323e-10	2.9629483e-09	2.4032802e-09	0.8247668
3.320343127782063e-10	1.4156308e-09	1.1851794e-09	0.82788193
3.3302180457468847e-10	9.876495e-11	2.9629485e-10	0.8308639
3.340093056351364e-10	-1.2016401e-09	-1.1522577e-10	0.83371025
3.3504616477927153e-10	-1.9094557e-09	-9.547279e-10	0.8365522
3.3603366838008815e-10	-3.473234e-09	-2.353898e-09	0.8391201
3.3702115311916336e-10	-3.917676e-09	-4.3456576e-09	0.841555
3.380086462758354e-10	-4.432077e-09	-6.18927e-09	0.843861
3.3904550814412247e-10	-3.9505976e-09	-7.111076e-09	0.84614867
3.400329973883768e-10	-3.8189114e-09	-7.506136e-09	0.8482064
3.4102047457411833e-10	-3.5884598e-09	-8.164569e-09	0.85015273
3.420079714418201e-10	-3.753068e-09	-9.613121e-09	0.85199475
3.4304481472621974e-10	-3.2263217e-09	-1.0271554e-08	0.8538247
3.440323016247597e-10	-2.5020452e-09	-1.0798301e-08	0.8554759
3.450197788673079e-10	-1.8106907e-09	-1.0798301e-08	0.85704535
3.4600726427081914e-10	-1.4156308e-09	-1.1917637e-08	0.8585405
3.470441195276536e-10	-5.925897e-10	-1.2411461e-08	0.8600376
3.4803159713359416e-10	3.292165e-10	-1.3036973e-08	0.8614015
3.490190708001007e-10	1.1193361e-09	-1.3695406e-08	0.8627108
3.500065474310466e-10	2.353898e-09	-1.4617212e-08	0.8639715
3.510434007476768e-10	3.3909298e-09	-1.4617212e-08	0.8652491
3.5203088294765906e-10	4.3456576e-09	-1.5078115e-08	0.8664267
3.5301835158845176e-10	5.7612883e-09	-1.4748899e-08	0.8675711
3.5400583707619863e-10	6.8806245e-09	-1.4946428e-08	0.8686867
3.5504269340615526e-10	8.362099e-09	-1.4748899e-08	0.869831
3.560301560567094e-10	9.5472785e-09	-1.4090466e-08	0.87089896
3.5701764809356985e-10	1.0534928e-08	-1.3432032e-08	0.8719493
3.580051132544243e-10	1.0995831e-08	-1.237854e-08	0.8729848
3.5904196988372086e-10	1.1654263e-08	-1.139089e-08	0.8740596
3.6002945086746253e-10	1.1687185e-08	-1.0205711e-08	0.8750744
3.6101692790030317e-10	1.1753029e-08	-1.0337398e-08	0.8760829
3.620043935163461e-10	1.2049323e-08	-9.678964e-09	0.87708783
3.630412548834815e-10	1.2707757e-08	-9.942338e-09	0.878142
3.640287199846582e-10	1.3300346e-08	-9.744808e-09	0.8791473
3.650162185467282e-10	1.4057544e-08	-9.415592e-09	0.8801564
3.6600368779316347e-10	1.4353839e-08	-9.218062e-09	0.88117176
3.6704052425101584e-10	1.5407332e-08	-9.744808e-09	0.882247
3.680280285500328e-10	1.636206e-08	-9.283905e-09	0.8832819
3.690154919332051e-10	1.7053415e-08	-8.691315e-09	0.88433033
3.7000298200640144e-10	1.8304437e-08	-8.559629e-09	0.8853945
3.710398350274544e-10	1.9687146e-08	-8.164569e-09	0.8865316
3.7202731246921175e-10	2.0411422e-08	-6.9793895e-09	0.88763607
3.7301479170267413e-10	2.1728289e-08	-5.6625233e-09	0.88876426
3.740022845024044e-10	2.2255035e-08	-4.3456576e-09	0.8899191
3.7503912481136256e-10	2.3506058e-08	-3.555538e-09	0.89116395
3.760266070408819e-10	2.4329099e-08	-1.4485525e-09	0.8923832
3.7701409608595214e-10	2.5349669e-08	0	0.89363915
3.7800157956262266e-10	2.5810573e-08	1.0534927e-09	0.89493537
3.7903843271213017e-10	2.6534849e-08	2.3045155e-09	0.8963441
3.800259124733556e-10	2.7061596e-08	4.0658237e-09	0.89773554
3.8101338420734145e-10	2.79834e-08	5.79421e-09	0.8991801
3.8200089785541303e-10	2.8477226e-08	7.242763e-09	0.9006827
3.8303774781038577e-10	2.9300267e-08	8.625472e-09	0.90232813
3.8402522794002064e-10	3.035376e-08	1.1061674e-08	0.90396565
3.8501272042983077e-10	3.114388e-08	1.3168659e-08	0.9056773
3.860001974009236e-10	3.2658274e-08	1.5539019e-08	0.90746915
3.8703706172189196e-10	3.2987494e-08	1.8633653e-08	0.9094433
3.880245521174024e-10	3.3415475e-08	2.2255035e-08	0.9114179
3.890120479323028e-10	3.3810533e-08	2.6139789e-08	0.9134905
3.9004891558688184e-10	3.4403122e-08	3.0279686e-08	0.9157776
3.9103641262619164e-10	3.4040983e-08	3.555538e-08	0.91806585
3.9202389615774524e-10	3.2789963e-08	4.069116e-08	0.9204638
3.930113952658371e-10	3.1012192e-08	4.5958622e-08	0.92297214
3.940482818741109e-10	2.8839365e-08	5.2740482e-08	0.9257207
3.95035755011825e-10	2.5448434e-08	5.906144e-08	0.92843896
3.9602326234976337e-10	2.0543109e-08	6.571161e-08	0.9312406
3.9701076459662657e-10	1.497935e-08	7.255932e-08	0.9341004
3.98047648830953e-10	7.868274e-09	7.993376e-08	0.9371248
3.9903514158634424e-10	-9.547279e-10	8.671562e-08	0.93996805
4.00022657270687e-10	-1.1522577e-08	9.316827e-08	0.9426942
4.010101626651954e-10	-2.4098647e-08	9.853449e-08	0.94519114
4.020470566215613e-10	-3.911092e-08	1.0334106e-07	0.94739556
4.0303455898269606e-10	-5.5571743e-08	1.066003e-07	0.9488746
4.040220748534543e-10	-7.3744495e-08	1.0757149e-07	0.94945675
4.05009600773468e-10	-9.2781434e-08	1.0660853e-07	0.94877255
4.0604649046162224e-10	-1.14106435e-07	1.0087193e-07	0.9462061
4.070340083501429e-10	-1.3419276e-07	9.13905e-08	0.94151103
4.080215311955212e-10	-1.5306921e-07	7.545642e-08	0.93421906
4.0900905692581403e-10	-1.6873992e-07	5.2806325e-08	0.92416644
4.100459432721208e-10	-1.8011434e-07	2.1596602e-08	0.9109012
4.110334838983528e-10	-1.8350526e-07	-1.1127518e-08	0.89646566
4.1202099675786093e-10	-1.8113491e-07	-4.148128e-08	0.8814283
4.130085183451237e-10	-1.7830365e-07	-6.663342e-08	0.86680627
4.1404541034524994e-10	-1.7277281e-07	-9.13905e-08	0.8523562
4.150329265929231e-10	-1.6118439e-07	-1.1351384e-07	0.83940953
4.16020470046591e-10	-1.4287995e-07	-1.3468247e-07	0.8271304
4.170080409488575e-10	-1.1680601e-07	-1.5262476e-07	0.8154642
4.1804506662886106e-10	-8.474032e-08	-1.6618849e-07	0.803887
4.1903272333965365e-10	-5.175283e-08	-1.7290449e-07	0.79354584
4.200204080455898e-10	-1.8534887e-08	-1.7224606e-07	0.78392184
4.210080671727206e-10	1.2148089e-08	-1.6717613e-07	0.775058
4.220449385735911e-10	4.0436014e-08	-1.5591692e-07	0.76660204
4.2303234126736965e-10	6.209023e-08	-1.4153017e-07	0.7593766
4.240197336317128e-10	7.9143646e-08	-1.2493766e-07	0.75296605
4.2500714825871273e-10	9.1308195e-08	-1.0627108e-07	0.74736524
4.260439729851283e-10	9.925877e-08	-8.7176524e-08	0.74232936
4.270314477997252e-10	1.0268262e-07	-6.8806244e-08	0.7382946
4.280189165391692e-10	1.0260032e-07	-5.1621146e-08	0.73495823
4.2900642245330724e-10	9.9485106e-08	-3.5687066e-08	0.7322863
4.300432914097412e-10	9.471558e-08	-2.1540018e-08	0.73016864
4.310307487327604e-10	8.83617e-08	-9.481435e-09	0.72877914
4.3201824229023294e-10	8.154692e-08	3.950598e-10	0.7279637
4.3300569541154804e-10	7.422186e-08	8.032882e-09	0.7276747
4.340425502978749e-10	6.632066e-08	1.4880585e-08	0.7278799
4.3503002598004163e-10	5.962111e-08	1.9226242e-08	0.7285073
4.3601748529697384e-10	5.3431837e-08	2.2386722e-08	0.7295132
4.3700497619215614e-10	4.7670547e-08	2.3835273e-08	0.7308648
4.380418517369662e-10	4.194218e-08	2.5810573e-08	0.73262906
4.3902934003319526e-10	3.8073885e-08	2.6469005e-08	0.73461694
4.4001683787794003e-10	3.4715878e-08	2.7390811e-08	0.73688596
4.410043331615005e-10	3.158832e-08	2.7876405e-08	0.73941666
4.4204119975731216e-10	2.7901097e-08	2.8180931e-08	0.74233156
4.4302872501655806e-10	2.4790001e-08	2.79834e-08	0.74532837
4.440162110649751e-10	2.1514298e-08	2.7456656e-08	0.7485148
4.4500372535988707e-10	1.8872335e-08	2.7193282e-08	0.75186604
4.460406066708778e-10	1.616453e-08	2.6600691e-08	0.755536
4.4702810033002875e-10	1.4238613e-08	2.6534849e-08	0.75915235
4.4801560392444087e-10	1.1641918e-08	2.6304397e-08	0.762867
4.490031083792724e-10	9.3497485e-09	2.5580121e-08	0.7666621
4.500399808785779e-10	7.308606e-09	2.4296178e-08	0.77071637
4.510274760918844e-10	5.267464e-09	2.3143919e-08	0.77462804
4.5201497012088685e-10	4.3456576e-09	2.1831168e-08	0.77857465
4.5300248803028947e-10	3.2263217e-09	2.096286e-08	0.78254247
4.540393465314357e-10	1.9917596e-09	1.9999902e-08	0.78671575
4.550268621157308e-10	1.2510226e-09	1.8699497e-08	0.7906824
4.5601434840379826e-10	4.609031e-10	1.698757e-08	0.79462653
4.5700185223973507e-10	1.3168659e-10	1.5102806e-08	0.7985337
4.5803872656003473e-10	-6.255113e-10	1.2839443e-08	0.8025806
4.590262126787782e-10	-9.547279e-10	1.0822992e-08	0.8063672
4.6001371730923593e-10	-7.901196e-10	8.491727e-09	0.8100743
4.6100120286178656e-10	-1.975299e-10	6.946468e-09	0.8136895
4.620380648501612e-10	9.876494e-10	5.514376e-09	0.81737447
4.630255666175188e-10	1.7119257e-09	4.4444226e-09	0.82076824
4.6401304353024993e-10	2.2715938e-09	3.2078031e-09	0.8240406
4.6500054785542695e-10	3.6213814e-09	2.8641833e-09	0.8271854
4.660373982155352e-10	4.5349573e-09	1.7201561e-09	0.8303448
4.670248782955401e-10	5.2016205e-09	8.1481083e-10	0.83321536
4.680123579880549e-10	6.551408e-09	1.3168659e-10	0.8359495
4.690492136681734e-10	7.5719795e-09	-5.2674637e-10	0.8386743
4.700366996965629e-10	8.395021e-09	-1.1851794e-09	0.84113264
4.710241715634043e-10	9.744808e-09	1.3168659e-10	0.84346116
4.720116427613272e-10	1.0831222e-08	4.2798143e-10	0.84566444
4.730484964767471e-10	1.0962909e-08	3.950598e-10	0.8478495
4.740359659317685e-10	1.0929988e-08	0	0.84981513
4.750234466335351e-10	1.1325047e-08	-5.925897e-10	0.8516751
4.760109078187635e-10	1.1720107e-08	-1.316866e-09	0.8534369
4.770477466312521e-10	1.27571385e-08	-1.7119257e-09	0.855189
4.780352164352745e-10	1.3728328e-08	-1.6460824e-09	0.8567724
4.790226747288723e-10	1.5456713e-08	-7.2427625e-10	0.85828024
4.8001015286741e-10	1.6263295e-08	7.2427625e-10	0.85971916
4.810469878373616e-10	1.655959e-08	2.436202e-09	0.86116344
4.820344422486059e-10	1.6855884e-08	4.1481276e-09	0.86248195
4.830219224604795e-10	1.6608972e-08	6.4526433e-09	0.86375093
4.840093658727859e-10	1.6493747e-08	7.308606e-09	0.8649758
4.85046208809553e-10	1.6394981e-08	8.7571586e-09	0.8662201
4.86033669704356e-10	1.5703627e-08	9.283905e-09	0.86737007
4.870211483909387e-10	1.5637783e-08	1.0271554e-08	0.86849046
4.880086001558029e-10	1.5341488e-08	1.139089e-08	0.8695849
4.890454376612904e-10	1.4600751e-08	1.2312697e-08	0.8707107
4.900329048480615e-10	1.34649545e-08	1.3102816e-08	0.8717638