# t (s)	mx ()	my ()	mz ()	E_total (J)	MaxAngle (rad)
0	1.0699536e-09	6.58433e-10	0.9795363	-2.0725773e-17	0.2662736
2.5236116927264645e-12	1.0843568e-09	6.58433e-10	0.97586185	-2.071231e-17	0.25205523
5.000830255028636e-12	1.0205711e-09	8.5596286e-10	0.9731456	-2.0690206e-17	0.24435768
7.523636504901225e-12	5.5966803e-10	8.39502e-10	0.97142506	-2.0661794e-17	0.24018075
1.0045310395122645e-11	6.58433e-10	1.0534927e-09	0.9710063	-2.0630596e-17	0.23909438
1.2516789777387006e-11	2.6337318e-10	7.901196e-10	0.9719763	-2.0600334e-17	0.24133115
1.5037127815874966e-11	4.609031e-10	8.888845e-10	0.9743021	-2.0572233e-17	0.24363723
1.7507614659218605e-11	1.3168659e-10	8.5596286e-10	0.9776757	-2.054905e-17	0.25204086
2.002721306248575e-11	-1.975299e-10	5.925897e-10	0.981888	-2.053125e-17	0.27092305
2.254658528609783e-11	-4.609031e-10	-6.58433e-10	0.9863913	-2.0520895e-17	0.33420354
2.501635415289666e-11	7.901196e-10	-1.5802392e-09	0.9903926	-2.0520088e-17	0.6424053
2.7507646456667206e-11	1.8230363e-09	-1.0534927e-09	0.99305695	-2.0862516e-17	0.1147774
3.0027389525221584e-11	1.9999902e-09	5.2674637e-10	0.9935104	-2.0951257e-17	0.08880577
3.254916442268359e-11	1.0452623e-09	1.1193361e-09	0.9936209	-2.0967447e-17	0.08880174
3.5020932716711386e-11	9.17691e-10	1.316866e-09	0.99370277	-2.0975444e-17	0.08880174
3.753953735682312e-11	2.3456675e-10	1.0534927e-09	0.993798	-2.0981243e-17	0.08880308
4.000644521664421e-11	-1.5226262e-10	3.950598e-10	0.993899	-2.098655e-17	0.0888051
4.2523324509419133e-11	6.337417e-10	-6.58433e-10	0.9939835	-2.0991427e-17	0.08879368
4.504150130693701e-11	1.4485525e-09	-5.2674637e-10	0.99404556	-2.0995199e-17	0.08881921
4.7510145420115216e-11	1.767481e-09	6.5843296e-11	0.994097	-2.0997849e-17	0.0887977
5.0026691953701283e-11	9.753038e-10	1.1851794e-09	0.9941242	-2.09998e-17	0.08881249
5.2542532876873754e-11	8.230412e-12	1.316866e-09	0.99416214	-2.1001408e-17	0.088827275
5.5009745559301836e-11	-6.58433e-10	0	0.9942004	-2.1002751e-17	0.08881316
5.75271382576787e-11	3.374469e-10	-1.0534927e-09	0.9942075	-2.1003861e-17	0.08879906
6.00444815846602e-11	1.835382e-09	-6.58433e-10	0.9942067	-2.1004708e-17	0.08881854
6.251174421018039e-11	2.2407296e-09	6.58433e-10	0.9942335	-2.1005329e-17	0.088828616
6.502797630336622e-11	1.5596631e-09	2.1069855e-09	0.99426377	-2.100583e-17	0.08881585
6.754454305244203e-11	-6.090505e-10	1.5802392e-09	0.99426347	-2.100624e-17	0.08880107
7.001223646296318e-11	-7.448523e-10	0	0.9942482	-2.1006551e-17	0.08881048
7.252925332939695e-11	3.0452524e-10	-1.0699536e-09	0.9942477	-2.1006801e-17	0.08880712
7.504589536595691e-11	1.9403197e-09	-1.0534927e-09	0.99426806	-2.1006985e-17	0.088819884
7.751296938508256e-11	2.353898e-09	6.58433e-10	0.9942845	-2.1007132e-17	0.08881048
8.002959110547645e-11	4.8559434e-10	2.1069855e-09	0.99428034	-2.1007248e-17	0.08880241
8.254646831070996e-11	-1.1810641e-09	1.0534927e-09	0.9942669	-2.1007339e-17	0.08880779
8.501400295546689e-11	-8.106956e-10	-7.901196e-10	0.9942643	-2.100741e-17	0.0888051
8.753069013696175e-11	8.806541e-10	-1.5802392e-09	0.99427533	-2.1007464e-17	0.08881115
9.004726976216625e-11	2.1337343e-09	-5.2674637e-10	0.9942852	-2.1007504e-17	0.08880779
9.25145824893463e-11	2.3621283e-09	1.4485525e-09	0.99428344	-2.1007542e-17	0.08880174
9.503139156188523e-11	7.901196e-10	1.8436124e-09	0.9942752	-2.1007567e-17	0.08880577
9.754819936224655e-11	-9.464974e-10	1.0534927e-09	0.99427253	-2.1007588e-17	0.08880308
1.0001553292343992e-10	-1.0308592e-09	-7.901196e-10	0.99427766	-2.1007603e-17	0.08880712
1.0253214935862132e-10	9.79419e-10	-1.8436124e-09	0.99428314	-2.1007615e-17	0.08880644
1.0504882943260329e-10	2.5802342e-09	0	0.9942825	-2.1007625e-17	0.08880174
1.0751623986582131e-10	1.9506077e-09	1.8436124e-09	0.99427825	-2.1007631e-17	0.08880308
1.1003300880452094e-10	-3.415621e-10	2.3703588e-09	0.99427634	-2.1007636e-17	0.08880308
1.1250038501280982e-10	-1.94855e-09	0	0.9942789	-2.1007643e-17	0.08880443
1.150170511049174e-10	-4.5678789e-10	-1.9752988e-09	0.99428177	-2.1007646e-17	0.08880375
1.175337398563359e-10	1.9464925e-09	-2.1069855e-09	0.99428153	-2.1007646e-17	0.08880174
1.200011357050137e-10	3.473234e-09	1.3168659e-10	0.9942793	-2.1007648e-17	0.08880308
1.225178776791733e-10	1.9094557e-09	2.633732e-09	0.99427825	-2.1007653e-17	0.08880308
1.2503459204773292e-10	-3.1275565e-10	2.2386721e-09	0.9942795	-2.1007655e-17	0.08880308
1.2750193782031602e-10	-1.5802392e-09	2.6337318e-10	0.99428093	-2.1007655e-17	0.08880241
1.3001862971804453e-10	-3.7036854e-10	-1.9752988e-09	0.9942809	-2.1007655e-17	0.08880174
1.325353552373461e-10	2.5102758e-09	-1.9752988e-09	0.9942796	-2.1007658e-17	0.08880174
1.3500273774711167e-10	3.3003953e-09	6.58433e-10	0.9942791	-2.1007655e-17	0.08880174
1.375194419097707e-10	1.5802392e-09	2.897105e-09	0.9942796	-2.1007656e-17	0.08880241
1.4003614518364604e-10	-1.0370319e-09	2.1069855e-09	0.9942806	-2.1007656e-17	0.08880174
1.4250350773596484e-10	-2.2016353e-09	-3.950598e-10	0.9942806	-2.1007658e-17	0.08880174
1.4502022760873094e-10	-1.5637783e-10	-2.3703588e-09	0.99427986	-2.1007655e-17	0.08880174
1.4753694400497333e-10	2.8518379e-09	-1.8436124e-09	0.9942795	-2.1007656e-17	0.08880241
1.5000430588144337e-10	3.7283767e-09	7.901196e-10	0.99427986	-2.1007656e-17	0.08880174
1.525210135837969e-10	1.3991701e-09	3.1604783e-09	0.9942803	-2.1007656e-17	0.08880107
1.5503772644611113e-10	-1.6028727e-09	1.8436124e-09	0.9942803	-2.1007655e-17	0.08880174
1.5750508451269465e-10	-2.1522528e-09	-9.218062e-10	0.9942799	-2.1007658e-17	0.08880241
1.6002180125163246e-10	6.255113e-10	-2.7654186e-09	0.9942796	-2.1007658e-17	0.08880241
1.6253851083217145e-10	3.3826995e-09	-1.316866e-09	0.99427986	-2.1007656e-17	0.08880241
1.6500588236323814e-10	3.3909298e-09	1.5802392e-09	0.9942801	-2.1007658e-17	0.08880174
1.6752259039506323e-10	5.1234317e-10	3.0287917e-09	0.9942802	-2.100766e-17	0.08880174
1.7003930246857578e-10	-1.9999902e-09	1.1851794e-09	0.9942799	-2.1007656e-17	0.08880174
1.7250667467486687e-10	-1.5308567e-09	-1.8436124e-09	0.99427986	-2.100766e-17	0.08880174
1.750233781268623e-10	2.0905246e-09	-2.897105e-09	0.9942799	-2.1007658e-17	0.08880174
1.7754008322638257e-10	4.4032706e-09	-1.3168659e-10	0.99428004	-2.100766e-17	0.08880107
1.8000745183280347e-10	3.0123308e-09	3.2921648e-09	0.99428004	-2.1007656e-17	0.08880174
1.8252416876161405e-10	-1.1234512e-09	3.8189114e-09	0.99428004	-2.1007658e-17	0.08880174
1.8504087801470351e-10	-3.2180911e-09	0	0.9942799	-2.100766e-17	0.08880241
1.875082408818174e-10	-1.1234512e-09	-3.4238514e-09	0.99428	-2.1007658e-17	0.08880241
1.900249524568149e-10	3.016446e-09	-3.1604783e-09	0.99428004	-2.1007656e-17	0.08880241
1.9254165738078573e-10	5.234542e-09	5.2674637e-10	0.99428	-2.1007658e-17	0.08880241
1.9500902997695504e-10	2.907393e-09	4.7407176e-09	0.99428	-2.1007658e-17	0.08880174
1.975257397365518e-10	-1.9423774e-09	4.609031e-09	0.9942799	-2.1007658e-17	0.08880308
2.0004246063099334e-10	-4.213971e-09	1.3168659e-10	0.9942799	-2.1007656e-17	0.08880174
2.0250981583833438e-10	-1.3415572e-09	-4.213971e-09	0.99428004	-2.1007658e-17	0.08880174
2.0502652142734835e-10	3.9505976e-09	-3.9505976e-09	0.99428	-2.1007656e-17	0.08880107
2.07543233686512e-10	5.923839e-09	6.58433e-10	0.99428004	-2.1007658e-17	0.08880174
2.1001059444319482e-10	2.9608909e-09	5.0040905e-09	0.9942799	-2.100766e-17	0.08880174
2.1252731305786072e-10	-2.5843494e-09	4.213971e-09	0.99428004	-2.1007656e-17	0.08880107
2.1504402905166705e-10	-4.3785793e-09	-6.58433e-10	0.99428004	-2.1007658e-17	0.08880174
2.1751138573106398e-10	-9.711887e-10	-4.7407176e-09	0.99428004	-2.1007658e-17	0.08880241
2.2002809987361924e-10	4.312736e-09	-3.8189114e-09	0.99428004	-2.1007658e-17	0.08880241
2.2254481007975984e-10	5.6460627e-09	1.5802392e-09	0.99428004	-2.1007658e-17	0.08880174
2.2501217226681268e-10	1.207813e-09	5.135777e-09	0.99428	-2.1007658e-17	0.08880174
2.275288929056051e-10	-3.7119159e-09	3.4238514e-09	0.99428004	-2.1007658e-17	0.08880174
2.300456012826406e-10	-4.59257e-09	-2.3703588e-09	0.99428004	-2.1007656e-17	0.08880241
2.3251296025583384e-10	3.7859896e-10	-5.79421e-09	0.99428	-2.1007658e-17	0.08880241
2.3502967590005844e-10	5.5472977e-09	-2.897105e-09	0.99428	-2.1007658e-17	0.08880241
2.375464020273133e-10	5.79421e-09	3.0287917e-09	0.99428	-2.1007656e-17	0.08880174
2.4001375290119257e-10	3.8682937e-10	6.4526433e-09	0.99428004	-2.1007658e-17	0.08880174
2.425304726928801e-10	-4.960881e-09	2.633732e-09	0.99428004	-2.1007658e-17	0.08880174
2.450471778967224e-10	-3.8641783e-09	-3.9505976e-09	0.99428	-2.1007658e-17	0.08880174
2.475145322262623e-10	2.3086306e-09	-5.79421e-09	0.99428	-2.1007658e-17	0.08880241
2.500312486246543e-10	7.283915e-09	-1.316866e-09	0.99428	-2.1007658e-17	0.08880241
2.5254796111210575e-10	5.3826894e-09	5.267464e-09	0.99428004	-2.1007658e-17	0.08880241
2.550153294795348e-10	-1.3662484e-09	7.111076e-09	0.99428	-2.1007658e-17	0.08880241
2.5753204130014344e-10	-6.3003807e-09	1.7119257e-09	0.99428	-2.1007658e-17	0.08880174
2.6004876150824494e-10	-4.084342e-09	-5.9258967e-09	0.99428	-2.1007658e-17	0.08880174
2.6251612811238063e-10	3.8189114e-09	-6.716016e-09	0.99428004	-2.1007658e-17	0.08880107
2.650328314702182e-10	8.6789695e-09	-2.6337318e-10	0.99428	-2.1007658e-17	0.08880241
2.6750020212110964e-10	5.530837e-09	6.716016e-09	0.99428	-2.1007658e-17	0.08880174
2.7001692005082213e-10	-2.8189162e-09	7.901195e-09	0.99428	-2.1007658e-17	0.08880174
2.7253362915745547e-10	-7.539057e-09	1.1851794e-09	0.99428	-2.1007658e-17	0.08880174
2.7500098897091344e-10	-3.814796e-09	-6.4526433e-09	0.9942799	-2.1007658e-17	0.08880174
2.775177047369487e-10	5.168699e-09	-6.716016e-09	0.99428004	-2.1007658e-17	0.08880174
2.8003442013789944e-10	9.415592e-09	9.218062e-10	0.99428	-2.1007658e-17	0.08880241
2.825017742419878e-10	4.4238466e-09	8.032882e-09	0.9942799	-2.1007658e-17	0.08880174
2.850184857407848e-10	-4.707796e-09	7.242763e-09	0.99428	-2.1007658e-17	0.08880241
2.8753520299938476e-10	-8.106956e-09	-1.5802392e-09	0.99428004	-2.1007656e-17	0.08880174
2.900025517605688e-10	-1.958838e-09	-8.427942e-09	0.99428	-2.1007658e-17	0.08880174
2.9251927671004616e-10	7.47733e-09	-6.3209566e-09	0.99428004	-2.1007655e-17	0.08880174
2.950359880225124e-10	1.0106946e-08	3.6872247e-09	0.99428	-2.1007658e-17	0.08880174
2.975033494398482e-10	2.419741e-09	1.0798301e-08	0.99428	-2.1007658e-17	0.08880241
3.000200554502136e-10	-7.403256e-09	7.3744495e-09	0.9942799	-2.1007656e-17	0.08880241
3.0253676507579015e-10	-9.2715595e-09	-3.8189114e-09	0.99428	-2.1007658e-17	0.08880174
3.050041321062004e-10	-3.950598e-10	-1.0798301e-08	0.99428	-2.1007658e-17	0.08880174
3.0752084794858164e-10	1.039501e-08	-5.9258967e-09	0.9942799	-2.1007658e-17	0.08880174
3.1003755180393625e-10	1.0938217e-08	5.6625233e-09	0.99428	-2.1007658e-17	0.08880174
3.1250491843538415e-10	7.9835e-10	1.198348e-08	0.99428	-2.1007658e-17	0.08880241
3.1502163575074417e-10	-9.97526e-09	6.0575833e-09	0.99428004	-2.1007656e-17	0.08880174
3.1753835055292884e-10	-9.205716e-09	-6.4526433e-09	0.99428	-2.1007658e-17	0.08880174
3.2000570124267875e-10	2.1851745e-09	-1.1720107e-08	0.99428	-2.1007658e-17	0.08880107
3.2252241789273595e-10	1.2345618e-08	-4.0822843e-09	0.99428	-2.1007655e-17	0.08880174
3.250391348226931e-10	1.0357974e-08	8.9546885e-09	0.99428	-2.1007658e-17	0.08880174
3.275064912466295e-10	-2.2880546e-09	1.3036973e-08	0.99428	-2.1007658e-17	0.08880241
3.300232108517155e-10	-1.2654259e-08	3.8189114e-09	0.99428	-2.1007656e-17	0.08880241
3.3253992248218614e-10	-8.7571586e-09	-1.0008181e-08	0.99428	-2.1007658e-17	0.08880174
3.350072874489596e-10	5.172814e-09	-1.3432032e-08	0.99428	-2.1007658e-17	0.08880241
3.375239931766829e-10	1.502256e-08	-2.1069855e-09	0.99428	-2.1007658e-17	0.08880174
3.4004069732947863e-10	1.0139868e-08	1.237854e-08	0.99428	-2.1007658e-17	0.08880174
3.4250806575795506e-10	-5.4485327e-09	1.4617212e-08	0.99428	-2.1007658e-17	0.08880174
3.450247749505408e-10	-1.5012272e-08	1.4485525e-09	0.99428	-2.1007656e-17	0.08880174
3.4754149353660145e-10	-7.69955e-09	-1.3300346e-08	0.9942799	-2.1007656e-17	0.08880174
3.5000884955007114e-10	8.7180645e-09	-1.3827092e-08	0.99428	-2.1007658e-17	0.08880241
3.5252556884143397e-10	1.7629542e-08	7.901196e-10	0.99428	-2.1007658e-17	0.08880241
3.550422806480634e-10	8.592551e-09	1.5275646e-08	0.99428	-2.1007658e-17	0.08880174
3.5750964515942667e-10	-8.699546e-09	1.4617212e-08	0.99428004	-2.100766e-17	0.0888004
3.6002636131238456e-10	-1.6728313e-08	-1.316866e-09	0.99428004	-2.1007658e-17	0.08880107
3.6254306555546794e-10	-5.333307e-09	-1.6329137e-08	0.99428	-2.1007658e-17	0.08880174
3.650104265137065e-10	1.2818867e-08	-1.3168659e-08	0.99428004	-2.1007658e-17	0.08880241
3.675271369063419e-10	1.8794147e-08	4.7407176e-09	0.99428004	-2.1007658e-17	0.08880241
3.7004385626149707e-10	5.386805e-09	1.9094557e-08	0.99428	-2.1007658e-17	0.08880241
3.7251121496551295e-10	-1.3473184e-08	1.4090466e-08	0.99428004	-2.1007658e-17	0.08880174
3.750279276483037e-10	-1.8111022e-08	-5.79421e-09	0.99428004	-2.1007656e-17	0.08880241
3.775446445513872e-10	-2.5637734e-09	-1.9621302e-08	0.99428004	-2.1007658e-17	0.08880241
3.800119978425912e-10	1.7111027e-08	-1.2510227e-08	0.99428004	-2.1007658e-17	0.08880174
3.825287094552569e-10	1.9818833e-08	9.086375e-09	0.99428	-2.1007658e-17	0.08880174
3.8504542286444994e-10	1.8929949e-09	2.1859975e-08	0.99428	-2.1007656e-17	0.08880174
3.8751279843290375e-10	-1.8012257e-08	1.198348e-08	0.99428	-2.1007658e-17	0.08880174
3.900295011366331e-10	-1.9004021e-08	-1.0798301e-08	0.99428	-2.1007655e-17	0.08880174
3.9254620846637465e-10	1.497935e-09	-2.2913467e-08	0.99428	-2.1007656e-17	0.08880174
3.950135764110706e-10	2.2057504e-08	-1.0271554e-08	0.99428	-2.1007658e-17	0.08880174
3.975302898725952e-10	2.03785e-08	1.4880585e-08	0.99428004	-2.1007658e-17	0.08880174
4.0004699797413847e-10	-2.6008102e-09	2.5185061e-08	0.99428	-2.1007658e-17	0.08880241
4.0251436578136064e-10	-2.2728283e-08	9.613121e-09	0.99428	-2.1007658e-17	0.08880174
4.0503107684105897e-10	-1.8707727e-08	-1.659251e-08	0.99428	-2.1007656e-17	0.08880174
4.0754778465955113e-10	6.9629285e-09	-2.5020453e-08	0.99428	-2.1007658e-17	0.08880241
4.1001515347574247e-10	2.6368182e-08	-6.18927e-09	0.99428	-2.1007658e-17	0.08880174
4.125318559666971e-10	1.9102787e-08	2.0543109e-08	0.99428004	-2.1007658e-17	0.08880174
4.150485682386903e-10	-9.0781445e-09	2.6337318e-08	0.99428004	-2.1007658e-17	0.08880174
4.1751593262702697e-10	-2.7473115e-08	4.872404e-09	0.99428004	-2.1007658e-17	0.08880174
4.2003264773753753e-10	-1.637852e-08	-2.2913467e-08	0.99428004	-2.1007658e-17	0.08880107
4.2250002128254915e-10	1.3078125e-08	-2.6337318e-08	0.99428	-2.1007656e-17	0.08880174
4.2501672592670785e-10	3.1209723e-08	-6.58433e-10	0.99428	-2.1007658e-17	0.08880174
4.275334404015447e-10	1.5962884e-08	2.7785871e-08	0.99428004	-2.1007656e-17	0.08880174
4.300007979185184e-10	-1.5827082e-08	2.7127438e-08	0.99428004	-2.1007656e-17	0.08880241
4.325175198415827e-10	-3.1876386e-08	-1.7119257e-09	0.99428004	-2.1007656e-17	0.08880241
4.35034228084224e-10	-1.2608991e-08	-3.0287918e-08	0.99428	-2.1007658e-17	0.08880174
4.3750158551399997e-10	2.166656e-08	-2.6864065e-08	0.99428004	-2.1007658e-17	0.08880174
4.4001829815665186e-10	3.514386e-08	6.18927e-09	0.99428004	-2.1007658e-17	0.08880174
4.4253500391021584e-10	1.19629044e-08	3.4370203e-08	0.99428004	-2.1007658e-17	0.08880174
4.450023699955301e-10	-2.4003997e-08	2.7522498e-08	0.99428	-2.1007658e-17	0.08880174
4.4751909274325057e-10	-3.536608e-08	-8.559629e-09	0.99428	-2.1007658e-17	0.08880174
4.500358012136713e-10	-7.950578e-09	-3.674056e-08	0.99428004	-2.1007656e-17	0.08880174
4.525031634682339e-10	2.9506028e-08	-2.5810573e-08	0.99428	-2.1007656e-17	0.08880174
4.550198782398532e-10	3.7810512e-08	1.4353839e-08	0.99428004	-2.1007658e-17	0.08880174
4.575365930921656e-10	5.4485327e-09	4.0822844e-08	0.99428004	-2.1007658e-17	0.08880174
4.600039522738605e-10	-3.2958685e-08	2.4625393e-08	0.99428004	-2.1007658e-17	0.08880241
4.625206663618758e-10	-3.7189118e-08	-1.856781e-08	0.99428004	-2.1007658e-17	0.08880174
4.6503738270272506e-10	-6.5843296e-11	-4.3193204e-08	0.9942799	-2.1007658e-17	0.08880174
4.675047489453101e-10	3.9154127e-08	-2.1596602e-08	0.99428	-2.1007658e-17	0.08880107
4.700214530074055e-10	3.8983348e-08	2.4625393e-08	0.99428004	-2.1007656e-17	0.08880174
4.725381692380232e-10	-2.8806442e-09	4.6617053e-08	0.99428004	-2.1007656e-17	0.08880174
4.750055305363667e-10	-4.2592383e-08	1.9752989e-08	0.99428004	-2.1007658e-17	0.08880174
4.775222507220679e-10	-3.7588293e-08	-2.9629483e-08	0.99428	-2.1007658e-17	0.08880174
4.800389602468568e-10	9.619294e-09	-4.872404e-08	0.99428004	-2.1007658e-17	0.08880174
4.825063181260291e-10	4.9063544e-08	-1.5934077e-08	0.99428004	-2.1007656e-17	0.08880174
4.85023040229857e-10	3.8213802e-08	3.6477186e-08	0.99428	-2.1007658e-17	0.08880174
4.875397455476564e-10	-1.417277e-08	5.10944e-08	0.99428	-2.1007656e-17	0.08880241
4.900071101359601e-10	-5.209851e-08	1.2115167e-08	0.99428	-2.1007658e-17	0.08880241
4.925238077010432e-10	-3.4600653e-08	-4.1876337e-08	0.99428	-2.1007658e-17	0.08880174
4.950405271229201e-10	2.2106887e-08	-5.2016205e-08	0.99428004	-2.1007658e-17	0.08880174
4.97507887985136e-10	5.852646e-08	-6.18927e-09	0.99428	-2.1007658e-17	0.08880174
5.000246074748173e-10	3.4172672e-08	4.9250787e-08	0.9942799	-2.1007658e-17	0.08880174
5.025413135249305e-10	-2.7999862e-08	5.412319e-08	0.99428	-2.1007656e-17	0.08880174
5.050086825531057e-10	-6.141122e-08	1.316866e-09	0.99428	-2.1007658e-17	0.08880174
5.075253894083125e-10	-2.9687097e-08	-5.5176685e-08	0.99428004	-2.1007656e-17	0.08880241
5.100420975326929e-10	3.6864016e-08	-5.3464756e-08	0.99428	-2.1007658e-17	0.08880241
5.125094704538681e-10	6.641531e-08	6.0575833e-09	0.99428	-2.1007656e-17	0.08880241
5.150261873250213e-10	2.7028673e-08	6.2156076e-08	0.99428	-2.1007656e-17	0.08880174
5.17542898895759e-10	-4.2765222e-08	5.3596445e-08	0.99428	-2.100766e-17	0.08880174
5.2001025475609e-10	-6.811489e-08	-1.237854e-08	0.99428	-2.1007658e-17	0.08880241
5.225269710319608e-10	-2.0073974e-08	-6.768691e-08	0.99428	-2.1007658e-17	0.08880174
5.250436742644967e-10	5.2769288e-08	-5.0831026e-08	0.99428	-2.1007658e-17	0.08880241
5.275110423166775e-10	7.2230094e-08	2.1596602e-08	0.99428004	-2.1007656e-17	0.08880174
5.300277446899489e-10	1.5187169e-08	7.5324735e-08	0.99428004	-2.1007658e-17	0.08880174
5.325444530190548e-10	-6.041534e-08	4.9184944e-08	0.99428	-2.1007658e-17	0.08880241
5.35011824740922e-10	-7.3201285e-08	-3.0024545e-08	0.99428004	-2.1007656e-17	0.08880241
5.375285283468499e-10	-6.742765e-09	-8.072388e-08	0.99428004	-2.1007656e-17	0.08880174
5.400452354893708e-10	7.092558e-08	-4.4773444e-08	0.99428	-2.1007658e-17	0.08880174
5.425125978104568e-10	7.5717736e-08	4.0822844e-08	0.99428004	-2.1007658e-17	0.08880174
5.450293230106919e-10	-3.539077e-10	8.770327e-08	0.99428	-2.1007658e-17	0.08880174
5.475460252881081e-10	-7.9324714e-08	4.0822844e-08	0.99428004	-2.1007658e-17	0.08880174
5.500133889914567e-10	-7.4979056e-08	-5.10944e-08	0.99428004	-2.1007656e-17	0.08880241
5.525300982487695e-10	1.1374429e-08	-9.283905e-08	0.99428004	-2.1007656e-17	0.08880174
5.550468155591706e-10	9.029585e-08	-3.4633576e-08	0.99428004	-2.1007658e-17	0.08880174
5.57514173084208e-10	7.58021e-08	6.294619e-08	0.99428	-2.1007658e-17	0.08880174
5.60030885297106e-10	-2.0715948e-08	9.8238196e-08	0.99428	-2.1007658e-17	0.08880174
5.625475931333313e-10	-9.833696e-08	2.7390811e-08	0.99428004	-2.1007658e-17	0.08880174
5.650149551547795e-10	-7.231652e-08	-7.4666296e-08	0.99428004	-2.1007656e-17	0.08880174
5.67531667680139e-10	3.3794073e-08	-1.0126699e-07	0.99428	-2.1007658e-17	0.08880174
5.700483886510556e-10	1.08197e-07	-1.7909377e-08	0.99428	-2.1007658e-17	0.08880174
5.725157560635485e-10	6.997085e-08	8.730821e-08	0.9942799	-2.1007656e-17	0.08880241
5.75032457725152e-10	-4.5234344e-08	1.04164094e-07	0.99428	-2.1007658e-17	0.08880107
5.775491674510486e-10	-1.1525869e-07	8.032882e-09	0.99428	-2.1007658e-17	0.08880174
5.800165376407522e-10	-6.325072e-08	-9.929169e-08	0.99428004	-2.1007656e-17	0.08880174
5.825332446983119e-10	6.060053e-08	-1.0469084e-07	0.99428	-2.1007658e-17	0.08880174
5.850006064331101e-10	1.2426277e-07	2.2386721e-09	0.99428	-2.1007658e-17	0.08880241
5.875173191222575e-10	5.7654038e-08	1.12987095e-07	0.99428004	-2.1007656e-17	0.08880107
5.900340418371812e-10	-7.4213624e-08	1.0561265e-07	0.99428004	-2.1007658e-17	0.08880241
5.925014024876149e-10	-1.3013927e-07	-1.5012272e-08	0.99428	-2.1007658e-17	0.08880241
5.95018110494285e-10	-4.7370136e-08	-1.2536563e-07	0.99428	-2.1007658e-17	0.08880174
5.975348242845192e-10	9.167856e-08	-1.02715546e-07	0.99428004	-2.1007658e-17	0.08880174
6.000021941030262e-10	1.3790878e-07	3.1341408e-08	0.99428004	-2.1007658e-17	0.08880241
6.02518905852236e-10	3.7777593e-08	1.3958778e-07	0.99428004	-2.1007656e-17	0.08880174
6.050356114079356e-10	-1.0770729e-07	9.995013e-08	0.99428	-2.1007658e-17	0.08880174
6.075029800248308e-10	-1.4156309e-07	-4.793392e-08	0.99428	-2.1007658e-17	0.08880107
6.10019690790649e-10	-2.2913467e-08	-1.5170296e-07	0.99428	-2.1007658e-17	0.08880174
6.125363993499582e-10	1.2672777e-07	-9.323411e-08	0.99428	-2.1007656e-17	0.08880174
6.150037649253652e-10	1.4674002e-07	6.6765104e-08	0.99428	-2.1007658e-17	0.08880107
6.175204782669936e-10	9.728347e-09	1.639498e-07	0.99428004	-2.1007655e-17	0.08880174
6.200371832743339e-10	-1.4323386e-07	8.664978e-08	0.99428	-2.1007658e-17	0.08880174
6.225045577173633e-10	-1.4778529e-07	-8.585966e-08	0.99428	-2.1007658e-17	0.08880241
6.250212695004079e-10	8.4032505e-09	-1.7494564e-07	0.99428004	-2.1007656e-17	0.08880174
6.275379745386826e-10	1.6293747e-07	-7.5588105e-08	0.99428	-2.1007658e-17	0.08880241
6.300053408054551e-10	1.4868239e-07	1.0824638e-07	0.99428	-2.1007658e-17	0.08880174
6.32522052882427e-10	-2.6621269e-08	1.856781e-07	0.99428004	-2.1007658e-17	0.08880241
6.350387553595709e-10	-1.8011434e-07	6.3341254e-08	0.99428004	-2.1007658e-17	0.08880174
6.375061139288166e-10	-1.4508159e-07	-1.3010636e-07	0.99428	-2.1007658e-17	0.08880107
6.400228268512622e-10	4.931663e-08	-1.9371097e-07	0.99428004	-2.1007656e-17	0.08880241
6.425395395020345e-10	1.9900314e-07	-4.7407173e-08	0.99428004	-2.1007658e-17	0.08880174
6.450069016085092e-10	1.4143552e-07	1.5446838e-07	0.99428004	-2.1007656e-17	0.08880241
6.47523616385507e-10	-7.1958496e-08	2.0095375e-07	0.99428004	-2.1007656e-17	0.08880241
6.500403324442338e-10	-2.1520881e-07	2.976117e-08	0.99428	-2.1007658e-17	0.08880107
6.525076988322922e-10	-1.3175244e-07	-1.7830365e-07	0.99428004	-2.1007658e-17	0.08880174
6.550244094183182e-10	9.988428e-08	-2.0398254e-07	0.99428	-2.1007656e-17	0.08880174
6.57541112068458e-10	2.331182e-07	-7.111076e-09	0.99428004	-2.1007658e-17	0.08880174
6.600084782937852e-10	1.2158787e-07	2.0477266e-07	0.99428004	-2.1007658e-17	0.08880174
6.625251920357698e-10	-1.2652201e-07	2.0701133e-07	0.99428	-2.1007656e-17	0.08880174
6.650419019633218e-10	-2.4672923e-07	-1.7250944e-08	0.99428	-2.1007658e-17	0.08880241
6.675092736877008e-10	-1.0575256e-07	-2.2966142e-07	0.99428	-2.1007658e-17	0.08880174
6.700259782104587e-10	1.5841074e-07	-2.0569446e-07	0.99428	-2.1007658e-17	0.08880174
6.72542697467015e-10	2.615625e-07	4.5300187e-08	0.99428	-2.1007658e-17	0.08880241
6.750100617309139e-10	8.8954295e-08	2.5586706e-07	0.99428004	-2.1007656e-17	0.08880241
6.775267643654807e-10	-1.885752e-07	2.0121712e-07	0.99428004	-2.1007656e-17	0.08880174
6.80043478343905e-10	-2.7085463e-07	-7.611485e-08	0.99428	-2.1007658e-17	0.08880174
6.825108511716682e-10	-6.4761e-08	-2.8036075e-07	0.99428	-2.1007656e-17	0.08880174
6.850275508907202e-10	2.237314e-07	-1.9213074e-07	0.99428004	-2.1007658e-17	0.08880241
6.875442640276877e-10	2.807805e-07	1.11143486e-07	0.99428004	-2.1007656e-17	0.08880174
6.900116298770746e-10	3.9489517e-08	3.056446e-07	0.99428004	-2.1007658e-17	0.08880174
6.925283396395083e-10	-2.575337e-07	1.8041064e-07	0.99428004	-2.1007658e-17	0.08880174
6.950450601829671e-10	-2.8468173e-07	-1.4841079e-07	0.99428004	-2.1007656e-17	0.08880241
6.975124288838038e-10	-7.024657e-09	-3.28163e-07	0.99428	-2.100766e-17	0.08880174
7.000291350352854e-10	2.946858e-07	-1.6263294e-07	0.99428004	-2.1007658e-17	0.08880174
7.025458487114854e-10	2.8777225e-07	1.8910195e-07	0.99428	-2.1007658e-17	0.08880174
7.050132136181613e-10	-2.6411392e-08	3.5054973e-07	0.99428	-2.1007658e-17	0.08880241
7.075299227113245e-10	-3.2874735e-07	1.4195815e-07	0.99428	-2.1007658e-17	0.08880174
7.100466243991762e-10	-2.8370232e-07	-2.3071492e-07	0.99428	-2.1007658e-17	0.08880241
7.125139962385312e-10	6.740708e-08	-3.681957e-07	0.99428	-2.1007658e-17	0.08880174
7.150307110068166e-10	3.6639327e-07	-1.1377722e-07	0.99428	-2.1007656e-17	0.08880174
7.175474235322295e-10	2.775624e-07	2.770686e-07	0.99428	-2.1007658e-17	0.08880174
7.200147907371163e-10	-1.1056324e-07	3.8439316e-07	0.99428004	-2.1007658e-17	0.08880174
7.225314959060861e-10	-3.9998568e-07	8.204075e-08	0.99428	-2.1007658e-17	0.08880174
7.250482061840857e-10	-2.634884e-07	-3.2368564e-07	0.99428004	-2.1007658e-17	0.08880174
7.275155686326403e-10	1.602132e-07	-3.9558654e-07	0.99428004	-2.100766e-17	0.08880241
7.300322821337586e-10	4.3479622e-07	-4.3061515e-08	0.99428004	-2.1007656e-17	0.08880241
7.325489902436367e-10	2.459988e-07	3.7293643e-07	0.99428	-2.1007658e-17	0.08880174
7.350163570587208e-10	-2.1165327e-07	4.0335604e-07	0.99428	-2.1007658e-17	0.08880174
7.375330744810308e-10	-4.6483723e-07	-5.2674637e-10	0.99428	-2.1007658e-17	0.08880174
7.400004388027313e-10	-2.2813879e-07	-4.1678808e-07	0.99428	-2.1007658e-17	0.08880174
7.42517147577723e-10	2.6965915e-07	-4.046729e-07	0.99428	-2.1007656e-17	0.08880174
7.450338669539823e-10	4.94619e-07	5.2147893e-08	0.9942799	-2.1007656e-17	0.08880241
7.475012282699256e-10	1.981307e-07	4.6788247e-07	0.99428	-2.1007658e-17	0.08880174
7.500179422344386e-10	-3.290025e-07	4.007223e-07	0.99428	-2.1007658e-17	0.08880174
7.525346551477608e-10	-5.1834724e-07	-1.0864144e-07	0.99428	-2.1007658e-17	0.08880174
7.550020095424977e-10	-1.581844e-07	-5.1792335e-07	0.99428	-2.1007656e-17	0.08880174
7.575187215880449e-10	3.9467707e-07	-3.8939726e-07	0.99428	-2.1007658e-17	0.08880174
7.60035440844398e-10	5.402936e-07	1.7198269e-07	0.99428004	-2.1007658e-17	0.08880174
7.62502795792024e-10	1.1320932e-07	5.677009e-07	0.99428004	-2.1007658e-17	0.08880241
7.650195130127497e-10	-4.595862e-07	3.713562e-07	0.99428	-2.1007658e-17	0.08880174
7.675362211951007e-10	-5.536804e-07	-2.4019636e-07	0.99428	-2.1007658e-17	0.08880241
7.700035913465936e-10	-5.7250748e-08	-6.1471303e-07	0.99428	-2.1007658e-17	0.08880241
7.725202999994536e-10	5.29734e-07	-3.43702e-07	0.99428	-2.1007658e-17	0.08880107
7.750370194056547e-10	5.630425e-07	3.1604782e-07	0.99428004	-2.1007658e-17	0.08880174
7.775043807711197e-10	-4.5267265e-09	6.590914e-07	0.99428004	-2.1007656e-17	0.08880241
7.80021083982543e-10	-5.981164e-07	3.0814664e-07	0.99428004	-2.1007658e-17	0.08880174
7.825378111291721e-10	-5.621906e-07	-3.959816e-07	0.99428	-2.1007658e-17	0.08880174
7.850051723459498e-10	7.769509e-08	-6.985974e-07	0.99428004	-2.1007656e-17	0.08880174
7.875218800646546e-10	6.702601e-07	-2.613979e-07	0.99428004	-2.1007658e-17	0.08880174
7.900385966912955e-10	5.5523185e-07	4.826314e-07	0.99428004	-2.1007658e-17	0.08880174
7.925059492758967e-10	-1.5747042e-07	7.345478e-07	0.99428004	-2.1007658e-17	0.08880241
7.950226566081537e-10	-7.391857e-07	2.0556277e-07	0.99428004	-2.1007656e-17	0.08880107
7.975393736226683e-10	-5.3609614e-07	-5.717832e-07	0.99428004	-2.1007656e-17	0.08880174
8.00006743261977e-10	2.4777657e-07	-7.6220203e-07	0.99428004	-2.1007656e-17	0.08880174
8.025234479043832e-10	8.0808655e-07	-1.3761249e-07	0.99428004	-2.1007658e-17	0.08880174
8.050401671461904e-10	5.08516e-07	6.660708e-07	0.99428	-2.1007658e-17	0.08880241
8.075075196054528e-10	-3.4450449e-07	7.830085e-07	0.99428	-2.1007656e-17	0.08880174
8.100242351089812e-10	-8.715965e-07	5.8995596e-08	0.99428	-2.1007658e-17	0.08880174
8.12540950192573e-10	-4.6611294e-07	-7.6167527e-07	0.99428004	-2.1007656e-17	0.08880174
8.150083107430594e-10	4.5231053e-07	-7.930167e-07	0.99428004	-2.1007656e-17	0.08880174
8.175250169652349e-10	9.329501e-07	3.318502e-08	0.99428	-2.1007658e-17	0.08880241
8.200417364623522e-10	4.1361938e-07	8.596501e-07	0.99428	-2.1007658e-17	0.08880174
8.22509102640986e-10	-5.645733e-07	7.936751e-07	0.99428	-2.1007655e-17	0.08880174
8.250258097939271e-10	-9.857112e-07	-1.3497876e-07	0.99428004	-2.1007658e-17	0.08880174
8.27542520349053e-10	-3.446485e-07	-9.570982e-07	0.99428	-2.1007656e-17	0.08880174
8.300098899267429e-10	6.86725e-07	-7.810332e-07	0.99428	-2.1007658e-17	0.08880241
8.325265987237382e-10	1.0331183e-06	2.5119218e-07	0.99428	-2.1007656e-17	0.08880241
8.350433083041645e-10	2.6309334e-07	1.0542828e-06	0.99428	-2.1007656e-17	0.08880174
8.375106778168352e-10	-8.128149e-07	7.5469586e-07	0.99428	-2.1007656e-17	0.08880174
8.40027393360871e-10	-1.0680194e-06	-3.7846726e-07	0.99428004	-2.1007658e-17	0.08880241
8.425441001416141e-10	-1.6316793e-07	-1.1467268e-06	0.99428004	-2.1007658e-17	0.08880174
8.450114530492906e-10	9.4626284e-07	-7.1176606e-07	0.99428004	-2.1007656e-17	0.08880174
8.475281736270744e-10	1.0941304e-06	5.188452e-07	0.99428	-2.1007656e-17	0.08880174
8.500448820071274e-10	4.9983292e-08	1.2368005e-06	0.9942799	-2.1007656e-17	0.08880241
8.525122388602036e-10	-1.0815049e-06	6.543507e-07	0.99428004	-2.1007656e-17	0.08880241
8.550289558557754e-10	-1.1048813e-06	-6.6962633e-07	0.99428	-2.1007658e-17	0.08880241
8.57545670759706e-10	8.252634e-08	-1.3181829e-06	0.99428004	-2.1007658e-17	0.08880241
8.600130270682686e-10	1.2203437e-06	-5.766556e-07	0.99428004	-2.1007656e-17	0.08880174
8.625297413857957e-10	1.1013773e-06	8.312058e-07	0.99428004	-2.1007658e-17	0.08880241
8.650464526252779e-10	-2.2943715e-07	1.3912688e-06	0.99428004	-2.1007658e-17	0.08880241
8.675138188482037e-10	-1.3573555e-06	4.803927e-07	0.99428004	-2.1007658e-17	0.08880174
8.700305299174194e-10	-1.0777643e-06	-1.0013449e-06	0.99428004	-2.1007658e-17	0.08880174