# t (s)	mx ()	my ()	mz ()	E_total (J)	MaxAngle (rad)
0	1.3333268e-09	3.6213813e-10	0.97953606	-2.0725773e-17	0.2662729
2.5201264540300704e-12	1.2510226e-09	1.0370319e-09	0.97403693	-2.070398e-17	0.24677953
5.047176029418484e-12	7.571979e-10	1.9259165e-09	0.96937376	-2.0662745e-17	0.23814341
7.520997845860027e-12	-5.5966803e-10	2.897105e-09	0.96610457	-2.060749e-17	0.23310025
1.0043364870602816e-11	-2.7736489e-09	2.3703588e-09	0.96460545	-2.0540633e-17	0.23280358
1.2515344462535764e-11	-4.4773443e-09	1.0329168e-09	0.9651629	-2.046938e-17	0.23221743
1.5035990844656156e-11	-4.609031e-09	-1.3827093e-09	0.9677167	-2.0393344e-17	0.23306645
1.7506663042750577e-11	-3.8847547e-09	-4.016441e-09	0.97185564	-2.031503e-17	0.23519221
2.0026369041688157e-11	-1.1851794e-09	-6.3209566e-09	0.9771183	-2.022776e-17	0.24145606
2.254579355035076e-11	2.1399071e-09	-7.1769195e-09	0.98210526	-2.0125933e-17	0.26885518
2.5015613673805512e-11	7.3579884e-09	-6.847703e-09	0.9836215	-2.0009845e-17	0.3471431
2.7534682445984543e-11	1.178595e-08	-1.7119257e-09	0.97521317	-1.9933833e-17	0.21484461
3.00041951761022e-11	1.1654263e-08	4.7407176e-09	0.95326525	-1.9999158e-17	0.21481358
3.25229751150047e-11	9.415592e-09	7.045233e-09	0.9223444	-2.0129794e-17	0.21951668
3.5041640039033205e-11	6.847703e-09	9.218062e-09	0.8923296	-2.0218974e-17	0.22652555
3.751088288118127e-11	9.629583e-10	1.0798301e-08	0.8700247	-2.0254237e-17	0.2249143
4.002934971155339e-11	-4.1481276e-09	1.1160439e-08	0.85431194	-2.026875e-17	0.21635331
4.254745465489879e-11	-5.8271317e-09	9.942338e-09	0.8440568	-2.0270011e-17	0.21384536
4.501619880015909e-11	-5.4032654e-09	7.950578e-09	0.8381677	-2.02619e-17	0.21397899
4.753437614028346e-11	-3.9629433e-09	6.913546e-09	0.8354399	-2.0249544e-17	0.21673171
5.000324300305772e-11	-3.5061556e-09	5.6625233e-09	0.8351119	-2.023774e-17	0.21806781
5.252142633018206e-11	-3.2715888e-09	5.267464e-09	0.8364858	-2.022819e-17	0.21860331
5.503952633724473e-11	-2.39505e-09	4.609031e-09	0.83901864	-2.0221514e-17	0.21832968
5.750825086912103e-11	-2.0987552e-09	3.917676e-09	0.8421634	-2.021722e-17	0.21999271
6.002634512565546e-11	-1.7448474e-09	3.753068e-09	0.84573996	-2.0214375e-17	0.22089227
6.254445029230086e-11	-1.5473175e-09	4.2798143e-09	0.84951085	-2.0212395e-17	0.2206059
6.501320178162008e-11	-7.078154e-10	4.2798143e-09	0.85326135	-2.021079e-17	0.22207388
6.753130680488607e-11	-4.609031e-10	5.135777e-09	0.8570226	-2.0209129e-17	0.22273567
7.00000351000705e-11	-7.571979e-10	5.3991505e-09	0.86057717	-2.020719e-17	0.2221594
7.251813381145123e-11	-1.5802392e-09	5.0040905e-09	0.8640514	-2.0204679e-17	0.22346681
7.50362347219791e-11	-2.436202e-09	4.609031e-09	0.8673926	-2.0201426e-17	0.22370417
7.750496881895006e-11	-2.4032802e-09	4.4773443e-09	0.87056816	-2.0197355e-17	0.22283764
8.002306956812263e-11	-2.6008102e-09	3.9835193e-09	0.87373453	-2.0192152e-17	0.22085336
8.254117180416375e-11	-2.0082205e-09	3.8847547e-09	0.876858	-2.0185746e-17	0.21932088
8.500990964387841e-11	-2.732497e-09	3.8189114e-09	0.879914	-2.017816e-17	0.21853708
8.752802329230951e-11	-3.1604783e-09	4.3456576e-09	0.8830675	-2.0168892e-17	0.2165476
9.004613402875517e-11	-3.6872247e-09	3.8847547e-09	0.8863061	-2.015783e-17	0.21628444
9.251486204911742e-11	-4.016441e-09	3.2263217e-09	0.8896137	-2.0144913e-17	0.2153364
9.5032980694076e-11	-4.5431876e-09	2.5020452e-09	0.8931786	-2.0129192e-17	0.21433574
9.750171959289007e-11	-5.530837e-09	2.1069855e-09	0.8969221	-2.0110703e-17	0.21425559
1.000198512587192e-10	-5.7612883e-09	6.58433e-10	0.901068	-2.0087929e-17	0.21330543
1.0253796571759708e-10	-6.650173e-09	1.3168659e-10	0.9056313	-2.0060162e-17	0.21354799
1.0500672955496899e-10	-7.506136e-09	-8.5596286e-10	0.9106065	-2.0026749e-17	0.21368352
1.0752486017615613e-10	-8.164569e-09	-2.8312617e-09	0.9162965	-1.9984586e-17	0.2131443
1.1004300129520826e-10	-8.888845e-09	-5.234542e-09	0.9227029	-1.9931888e-17	0.21368942
1.1251178061173063e-10	-8.296255e-09	-7.901195e-09	0.9297259	-1.9866951e-17	0.21440747
1.1502992815592299e-10	-6.4197216e-09	-1.2246853e-08	0.93757164	-1.9782734e-17	0.21452257
1.1754810439075972e-10	-3.8847547e-09	-1.6065764e-08	0.9457537	-1.9673282e-17	0.21535118
1.2001691142055036e-10	6.58433e-10	-1.9621302e-08	0.95318896	-1.9529979e-17	0.21343744
1.225350960526956e-10	7.7695095e-09	-2.2650093e-08	0.9579904	-1.933207e-17	0.20884973
1.2500391388539837e-10	1.7432013e-08	-2.35719e-08	0.95545655	-1.9099842e-17	0.2044528
1.2752212343081232e-10	2.9431954e-08	-1.8501966e-08	0.93860424	-1.8949295e-17	0.20982693
1.300403184767132e-10	3.5687066e-08	-4.3456576e-09	0.9055838	-1.9042816e-17	0.22945723
1.3250913197857724e-10	3.3876375e-08	9.876494e-09	0.86891174	-1.9320489e-17	0.2424757
1.3502733329171998e-10	2.7917558e-08	1.9654225e-08	0.8376598	-1.9612429e-17	0.21346669
1.3754572227384582e-10	1.5407332e-08	2.7110978e-08	0.81206536	-1.9817143e-17	0.20240825
1.4001482815632588e-10	3.1275567e-09	2.7695338e-08	0.7919378	-1.9935248e-17	0.20392694
1.42532747672505e-10	-6.2221917e-09	2.4658315e-08	0.77650505	-1.9999426e-17	0.207408
1.4500135031778336e-10	-1.27571385e-08	1.797522e-08	0.7661708	-2.0029282e-17	0.2111469
1.4751947978790177e-10	-1.4304456e-08	1.0534928e-08	0.7599392	-2.0041483e-17	0.2123027
1.5003761697350093e-10	-1.2822982e-08	4.213971e-09	0.7574198	-2.0045344e-17	0.21276724
1.5250633044493834e-10	-8.773619e-09	7.2427625e-10	0.7580124	-2.0046831e-17	0.21256731
1.5502443814325531e-10	-5.2180815e-09	-8.230412e-10	0.76102227	-2.0049133e-17	0.21204796
1.5754256520887844e-10	-3.7695287e-09	-1.3497876e-09	0.7658717	-2.005373e-17	0.21247633
1.6001133772025634e-10	-1.9423774e-09	-1.2839443e-09	0.7720662	-2.0060984e-17	0.21318996
1.6252949288392383e-10	-1.218101e-09	-1.1522577e-09	0.7795332	-2.0071157e-17	0.21340112
1.6504765215239883e-10	-9.876495e-11	-3.292165e-10	0.7877817	-2.0083725e-17	0.21396497
1.6751643981085297e-10	1.218101e-09	-5.925897e-10	0.7962725	-2.009776e-17	0.21525967
1.7003459591765866e-10	1.876534e-09	5.349768e-11	0.8050507	-2.0113034e-17	0.21561462
1.7250336098939655e-10	2.633732e-09	4.176934e-10	0.81354177	-2.0128161e-17	0.21663024
1.7502151786841474e-10	2.2386721e-09	1.917686e-09	0.8218791	-2.0142958e-17	0.21841525
1.7753964681336083e-10	1.9752988e-09	2.59258e-09	0.8297081	-2.0156436e-17	0.21909776
1.8000840020242571e-10	2.0987552e-09	2.5020452e-09	0.8367597	-2.0167912e-17	0.22018628
1.82526530758632e-10	1.9094557e-09	2.897105e-09	0.84325045	-2.0177585e-17	0.2214791
1.8504465305632273e-10	2.732497e-09	2.897105e-09	0.84903765	-2.0185096e-17	0.22150595
1.8751338214593736e-10	2.2715938e-09	4.0822843e-09	0.85408634	-2.0190375e-17	0.22275348
1.9003147168306165e-10	1.1851794e-09	4.510266e-09	0.85868883	-2.0193707e-17	0.22285949
1.925001994686041e-10	-1.3168659e-10	4.4773443e-09	0.8627621	-2.0195069e-17	0.22320063
1.9501829547606299e-10	-7.901196e-10	3.358008e-09	0.8665666	-2.0194629e-17	0.22380517
1.9753637916031237e-10	-7.2427625e-10	3.456773e-09	0.8701079	-2.0192458e-17	0.22309318
2.000050964425198e-10	-8.888845e-10	3.555538e-09	0.8734027	-2.018872e-17	0.22117284
2.025231880551968e-10	-1.1357969e-09	3.4896948e-09	0.87665325	-2.0183295e-17	0.21932006
2.0504128253486998e-10	-6.58433e-10	3.4238514e-09	0.8798559	-2.0176212e-17	0.21855576
2.07509999377446e-10	-1.0205711e-09	3.8189114e-09	0.8830059	-2.0167563e-17	0.2165925
2.1002809204316713e-10	-1.9094557e-09	3.6872247e-09	0.886285	-2.015681e-17	0.21626583
2.1254619832648792e-10	-1.1193361e-09	3.6872247e-09	0.88968784	-2.0143812e-17	0.2152806
2.1501492046747847e-10	-1.5143958e-09	3.358008e-09	0.89320326	-2.0128487e-17	0.21433014
2.1753301928635557e-10	-2.3374371e-09	4.1810493e-09	0.8970389	-2.0109654e-17	0.2142113
2.2000174555831262e-10	-3.0617133e-09	4.3456576e-09	0.9011191	-2.0087294e-17	0.21332654
2.2251986404102733e-10	-4.707796e-09	4.016441e-09	0.9056947	-2.0059489e-17	0.2135269
2.2503797939301117e-10	-5.79421e-09	3.6213814e-09	0.91078764	-2.0025263e-17	0.21372847
2.2750672388440887e-10	-6.814781e-09	2.0411421e-09	0.9163851	-1.9983722e-17	0.21320488
2.3002486334569782e-10	-7.209841e-09	7.901196e-10	0.9228048	-1.9930852e-17	0.2136408
2.3254300224526918e-10	-8.79008e-09	6.5843296e-11	0.9299883	-1.9864216e-17	0.21426764
2.350117779014135e-10	-1.0271554e-08	-2.3703588e-09	0.9376958	-1.9781134e-17	0.21460712
2.375299416735506e-10	-1.0798301e-08	-6.716016e-09	0.9458779	-1.9671202e-17	0.21536373
2.400481057284137e-10	-1.0074024e-08	-1.1851793e-08	0.9534218	-1.9523845e-17	0.21320038
2.4251690853593146e-10	-7.2180715e-09	-1.8041064e-08	0.958019	-1.9328395e-17	0.20873155
2.450350978671003e-10	-1.0534927e-09	-2.3835273e-08	0.95514137	-1.9091747e-17	0.20428775
2.475039195026409e-10	9.086375e-09	-2.6271476e-08	0.9381915	-1.8948577e-17	0.20994365
2.5002211024102794e-10	2.0806482e-08	-1.9752989e-08	0.90497667	-1.9046143e-17	0.22962438
2.525402915160001e-10	2.6337318e-08	-1.0526697e-08	0.86768293	-1.9331524e-17	0.24213141
2.550091170839052e-10	2.7456656e-08	-1.2510226e-09	0.8372104	-1.961635e-17	0.21302481
2.57527531108141e-10	2.3901118e-08	9.086375e-09	0.8116961	-1.9819567e-17	0.20246458
2.600459758151328e-10	1.7678925e-08	1.6853827e-08	0.7912974	-1.9938287e-17	0.20393282
2.625144991024931e-10	9.563739e-09	2.0082206e-08	0.7762943	-2.0000077e-17	0.20739844
2.6503245641463414e-10	2.732497e-09	1.9357929e-08	0.76587176	-2.0029924e-17	0.21116395
2.675012007748279e-10	-1.8600731e-09	1.6296216e-08	0.7598624	-2.004156e-17	0.21232507
2.700193247557117e-10	-3.835372e-09	1.1917637e-08	0.75739706	-2.0045346e-17	0.21276753
2.725374216159511e-10	-4.609031e-09	8.230412e-09	0.7580711	-2.0046858e-17	0.21255772
2.75006129918314e-10	-4.5267265e-09	5.5966805e-09	0.76107484	-2.0049157e-17	0.21203466
2.7752423880144947e-10	-3.9999803e-09	4.1810493e-09	0.76594985	-2.0053796e-17	0.21249893
2.800423938725842e-10	-3.0287917e-09	2.5020452e-09	0.7723016	-2.0061272e-17	0.21317783
2.8251116203734335e-10	-2.419741e-09	2.1892896e-09	0.77964735	-2.0071311e-17	0.2134349
2.850293219643995e-10	-2.2715938e-09	1.3827093e-09	0.7879054	-2.0083914e-17	0.21394475
2.875474728401399e-10	-1.0534927e-09	5.2674637e-10	0.79657227	-2.0098262e-17	0.21529454
2.900162381358643e-10	4.2798143e-10	6.748938e-10	0.805179	-2.0113254e-17	0.2156642
2.9253438548885476e-10	1.6131608e-09	4.3415424e-10	0.8138344	-2.0128681e-17	0.21658115
2.9500315446341534e-10	2.2057505e-09	1.958838e-09	0.8219987	-2.0143163e-17	0.21842763
2.9752128382393503e-10	2.8641833e-09	2.1399071e-09	0.82981914	-2.015662e-17	0.21914382
3.000394053749049e-10	3.1275567e-09	3.851833e-09	0.83699495	-2.0168276e-17	0.22015408
3.025081601852453e-10	2.9629483e-09	4.4773443e-09	0.8433413	-2.017771e-17	0.22150135
3.0502628456542017e-10	3.094635e-09	4.872404e-09	0.8491184	-2.018519e-17	0.22148561
3.0754437378201693e-10	3.0287917e-09	4.411501e-09	0.85425353	-2.0190526e-17	0.22279206
3.100130962173132e-10	1.5473175e-09	5.6625233e-09	0.85875356	-2.019374e-17	0.22284573
3.125312040664248e-10	8.230412e-10	4.9053255e-09	0.8628985	-2.0195079e-17	0.2232448
3.150492939165105e-10	1.975299e-10	5.069934e-09	0.8666926	-2.0194584e-17	0.22380383
3.1751800693218354e-10	5.925897e-10	3.8847547e-09	0.87015915	-2.0192412e-17	0.22307406
3.2003608283030044e-10	1.0534927e-09	4.7736393e-09	0.87351626	-2.018856e-17	0.2210856
3.225047990092915e-10	3.6213813e-10	5.530837e-09	0.8767011	-2.0183204e-17	0.21931869
3.2502287331112246e-10	-3.950598e-10	6.3868e-09	0.87990344	-2.0176097e-17	0.2185346
3.275409703332057e-10	-1.6460824e-09	6.18927e-09	0.8831176	-2.0167229e-17	0.21649987
3.3000968125535696e-10	-2.633732e-09	5.5966805e-09	0.8863346	-2.0156636e-17	0.2162625
3.32527768798332e-10	-2.5020452e-09	5.333307e-09	0.88973975	-2.0143603e-17	0.2152538
3.350458718001308e-10	-2.5020452e-09	5.8600533e-09	0.89333093	-2.0127897e-17	0.21435733
3.3751460132461154e-10	-3.3250864e-09	5.9258967e-09	0.89709836	-2.0109345e-17	0.21419278
3.4003270513094984e-10	-4.6748743e-09	6.3868e-09	0.9012695	-2.0086424e-17	0.21338058
3.425014446235597e-10	-6.1234267e-09	6.5184866e-09	0.9057664	-2.005903e-17	0.21350496
3.4501955922283225e-10	-8.493785e-09	6.29215e-09	0.9108679	-2.0024694e-17	0.21374449
3.475376727014812e-10	-1.0304476e-08	4.7160262e-09	0.91659415	-1.998209e-17	0.21333246
3.500064269859179e-10	-1.237854e-08	2.9629483e-09	0.9229061	-1.992997e-17	0.2135868
3.525245646179169e-10	-1.4880585e-08	7.571979e-10	0.93010086	-1.9863101e-17	0.21420345
3.5504270523671257e-10	-1.698757e-08	-3.8189114e-09	0.93797576	-1.977782e-17	0.21480323
3.5751147326096406e-10	-1.7646004e-08	-1.0139868e-08	0.9459983	-1.9669326e-17	0.21537377
3.600296404987887e-10	-1.6460824e-08	-1.738263e-08	0.9535201	-1.9521292e-17	0.21309161
3.625478128034219e-10	-1.2917632e-08	-2.6666536e-08	0.9580834	-1.9320554e-17	0.20847192
3.65016619754734e-10	-3.4238514e-09	-3.595044e-08	0.9550053	-1.9088423e-17	0.20420988
3.6753482255842025e-10	1.1061674e-08	-3.911092e-08	0.93728566	-1.8947493e-17	0.21100238
3.7000363136761116e-10	2.9234425e-08	-3.23949e-08	0.90440947	-1.9049427e-17	0.2297249
3.725218042707988e-10	3.996688e-08	-1.8831184e-08	0.86717224	-1.9336194e-17	0.24193147
3.750399968183621e-10	4.292983e-08	-3.374469e-09	0.83624524	-1.962498e-17	0.2120372
3.775090301413013e-10	3.792574e-08	1.237854e-08	0.8113558	-1.982188e-17	0.20251112
3.8002748533106533e-10	2.7423733e-08	2.4394941e-08	0.7910334	-1.993956e-17	0.20393106
3.8254534778405247e-10	1.5621323e-08	2.999162e-08	0.7758555	-2.0001558e-17	0.20740888
3.8501394568412763e-10	4.757178e-09	2.8444305e-08	0.7657516	-2.0030198e-17	0.21116766
3.8753205662276175e-10	-3.1687086e-09	2.2386722e-08	0.75971884	-2.0041779e-17	0.21237116
3.900007850441913e-10	-6.748938e-09	1.6658355e-08	0.75738585	-2.0045377e-17	0.21276528
3.925188550655589e-10	-7.045233e-09	1.0995831e-08	0.75810117	-2.0046883e-17	0.21255404
3.950369184242673e-10	-6.271574e-09	7.341528e-09	0.76121473	-2.0049275e-17	0.21200322
3.975056559133318e-10	-4.9053255e-09	4.6419526e-09	0.766034	-2.0053886e-17	0.21252182
4.000237818288079e-10	-4.2798143e-09	3.2263217e-09	0.7724052	-2.0061405e-17	0.21317106
4.0254191886793624e-10	-3.275704e-09	3.0287917e-09	0.77992076	-2.0071706e-17	0.21351002
4.050107105199153e-10	-2.5678886e-09	2.534967e-09	0.7880315	-2.0084116e-17	0.21392201
4.075288629838325e-10	-9.547279e-10	1.5143958e-09	0.7967021	-2.0098482e-17	0.21530627
4.1004697665946887e-10	-2.7983402e-10	1.6975225e-09	0.80548	-2.0113792e-17	0.21577586
4.1251574340063187e-10	3.950598e-10	2.1481377e-09	0.8139604	-2.0128908e-17	0.21655703
4.1503386205987224e-10	1.1028752e-09	2.7242664e-09	0.82227695	-2.0143653e-17	0.21845624
4.175026164858604e-10	1.7119257e-09	2.3703588e-09	0.82993025	-2.0156807e-17	0.21918961
4.2002072760694613e-10	2.6666536e-09	2.7983402e-09	0.8370957	-2.0168435e-17	0.22013934
4.225388299296434e-10	3.4896948e-09	3.0781742e-09	0.8435513	-2.0178e-17	0.22155261
4.2500756318916745e-10	3.7201462e-09	5.7612883e-09	0.8491987	-2.0185285e-17	0.22146527
4.2752565341964647e-10	2.8641833e-09	7.111076e-09	0.854325	-2.0190587e-17	0.22280958
4.300437292851238e-10	8.39502e-10	7.5719795e-09	0.8589029	-2.0193816e-17	0.22281337
4.3251243600082095e-10	6.5843296e-11	6.3209566e-09	0.8629569	-2.0195089e-17	0.2232623
4.3503051981662826e-10	7.2427625e-10	4.971169e-09	0.8667463	-2.0194561e-17	0.22380221
4.3754858943597406e-10	1.8600731e-09	4.8065605e-09	0.8702769	-2.0192311e-17	0.22302528
4.4001728155859974e-10	9.218062e-10	6.4526433e-09	0.87356484	-2.0188491e-17	0.2210478
4.4253534611524874e-10	-2.6337318e-10	8.032882e-09	0.8768114	-2.0182989e-17	0.21931157
4.4500405122416937e-10	-1.777769e-09	8.625472e-09	0.8799505	-2.0175979e-17	0.21851315
4.4752213870089655e-10	-2.436202e-09	7.242763e-09	0.88316524	-2.0167085e-17	0.21646184
4.5004021124186423e-10	-3.753068e-09	6.3868e-09	0.886449	-2.015623e-17	0.21625277
4.52508906033775e-10	-3.9505976e-09	5.069934e-09	0.88979095	-2.0143391e-17	0.21522813
4.550269822407621e-10	-3.1934e-09	5.79421e-09	0.8933853	-2.0127644e-17	0.21436937
4.5754506734025373e-10	-4.0493626e-09	7.3744495e-09	0.89723533	-2.0108632e-17	0.214151
4.6001378756448433e-10	-6.18927e-09	7.7695095e-09	0.90133363	-2.0086053e-17	0.2134031
4.6253188523083057e-10	-9.744808e-09	7.1769195e-09	0.9059322	-2.0057968e-17	0.21345264
4.6500060377203896e-10	-1.237854e-08	4.872404e-09	0.91094714	-2.0024138e-17	0.21375939
4.675187099899052e-10	-1.3958779e-08	1.7448474e-09	0.91668326	-1.9981396e-17	0.21338397
4.700368233623415e-10	-1.39917e-08	-1.679004e-09	0.92313987	-1.9927932e-17	0.21345544
4.725055736827041e-10	-1.5308567e-08	-4.938247e-09	0.9302117	-1.9862e-17	0.21413726
4.750237101759707e-10	-1.6724197e-08	-9.481435e-09	0.9380948	-1.9776404e-17	0.21488124
4.775418400528154e-10	-1.6658355e-08	-1.6065764e-08	0.9462751	-1.9664962e-17	0.21538074
4.800106253650641e-10	-1.3563719e-08	-2.515214e-08	0.9536164	-1.9518763e-17	0.21297969
4.825287926065298e-10	-5.695445e-09	-3.516032e-08	0.95810807	-1.9317205e-17	0.20836218
4.850469691304215e-10	8.032882e-09	-4.2863988e-08	0.9546787	-1.908084e-17	0.20400462
4.875157743879151e-10	2.7193282e-08	-4.1744652e-08	0.9368949	-1.8947133e-17	0.21139333
4.900339391283441e-10	4.4575913e-08	-2.6337318e-08	0.9030991	-1.9057164e-17	0.23029876
4.925027340029406e-10	5.254295e-08	-7.3744495e-09	0.86667114	-1.9340788e-17	0.24170396
4.950209299816122e-10	5.1160242e-08	1.1259204e-08	0.8358376	-1.9628609e-17	0.21160713
4.975393471754946e-10	3.911092e-08	2.8839365e-08	0.8105752	-1.9827137e-17	0.20260414
5.000083694898932e-10	2.2386722e-08	3.759652e-08	0.790775	-1.9940798e-17	0.20392488
5.025262334678866e-10	6.0575833e-09	3.83208e-08	0.7756713	-2.0002177e-17	0.20753358
5.050442037280737e-10	-5.613141e-09	3.1868154e-08	0.7654782	-2.003082e-17	0.2111776
5.075128997138316e-10	-1.1333277e-08	2.3209763e-08	0.75965935	-2.0041875e-17	0.21238981
5.100309873106572e-10	-1.2707757e-08	1.4880585e-08	0.7573624	-2.004544e-17	0.21276245
5.125490371152546e-10	-1.2049323e-08	8.427942e-09	0.758172	-2.0046936e-17	0.21254301
5.150177243080465e-10	-1.0164559e-08	3.9835193e-09	0.7612746	-2.0049323e-17	0.21198906
5.175358124661732e-10	-7.654283e-09	1.5473175e-09	0.766229	-2.0054099e-17	0.21257268
5.200045480277393e-10	-5.8271317e-09	3.950598e-10	0.7725072	-2.0061537e-17	0.21316515
5.225226665797051e-10	-4.4444226e-09	-6.255113e-10	0.7800366	-2.0071877e-17	0.21354209
5.250407965647221e-10	-3.2592433e-09	-7.901196e-10	0.78832287	-2.0084582e-17	0.21386921
5.275095460157032e-10	-1.0534927e-09	-1.8621308e-09	0.79682934	-2.0098702e-17	0.2153191
5.300276804996969e-10	8.888845e-10	-1.9094557e-09	0.805607	-2.0114015e-17	0.21582207
5.325457929359672e-10	1.876534e-09	-7.1604583e-10	0.81425077	-2.0129425e-17	0.21650042
5.35014529556357e-10	2.5678886e-09	1.4279765e-09	0.82239425	-2.0143858e-17	0.21846585
5.375326450168966e-10	2.7242664e-09	3.0699436e-09	0.83018595	-2.0157238e-17	0.2192913
5.400013745062423e-10	2.5678886e-09	5.2016205e-09	0.83719456	-2.0168587e-17	0.22012241
5.425194572721116e-10	1.4156308e-09	5.3991505e-09	0.8436397	-2.0178128e-17	0.22157188
5.450375369204224e-10	7.9835e-10	5.2016205e-09	0.8493834	-2.0185502e-17	0.22141342
5.475062331897225e-10	5.5966803e-10	5.3003855e-09	0.854395	-2.0190648e-17	0.22282416
5.50024301862396e-10	-6.4197214e-10	4.115206e-09	0.8589656	-2.019385e-17	0.22279987
5.525423596413998e-10	2.1399071e-10	3.917676e-09	0.86309123	-2.0195097e-17	0.22330348
5.550110405698417e-10	8.230412e-10	6.9793895e-09	0.866799	-2.0194544e-17	0.22380006
5.575291066655595e-10	-1.4485525e-09	8.164569e-09	0.87032646	-2.0192261e-17	0.22300507
5.600471567117523e-10	-3.275704e-09	6.2551133e-09	0.8736767	-2.018833e-17	0.22095862
5.625158386746837e-10	-3.6872247e-09	2.7654186e-09	0.87685794	-2.0182898e-17	0.21930964
5.650338806318333e-10	-2.5678886e-09	2.436202e-09	0.8800594	-2.0175706e-17	0.21846503
5.675025600222968e-10	-1.1193361e-09	1.9094557e-09	0.883212	-2.0166941e-17	0.21642187
5.700206178585263e-10	7.901196e-10	3.2592433e-09	0.8864972	-2.0156056e-17	0.21624805
5.725386676513186e-10	2.9629485e-10	6.847703e-09	0.88990986	-2.0142903e-17	0.21516505
5.750073679552062e-10	-3.2263217e-09	8.131647e-09	0.8934388	-2.0127397e-17	0.21438031
5.775254286766388e-10	-6.716016e-09	5.069934e-09	0.89729303	-2.0108329e-17	0.21413249
5.800434932676954e-10	-7.111076e-09	9.876494e-10	0.9014824	-2.0085191e-17	0.21345235
5.825121943612156e-10	-5.7612883e-09	-4.609031e-10	0.90600175	-2.0057523e-17	0.21342927
5.850302814785046e-10	-5.464994e-09	6.5843296e-11	0.9111311	-2.0022832e-17	0.21379142
5.875483772969882e-10	-6.5843295e-09	4.115206e-11	0.9168903	-1.9979768e-17	0.21349962
5.900170962676253e-10	-8.9546885e-09	0	0.9232382	-1.9927072e-17	0.21339662
5.925352063662209e-10	-1.1818872e-08	-3.6213814e-09	0.93046933	-1.9859427e-17	0.21397339
5.950039554810721e-10	-1.28723645e-08	-8.823002e-09	0.93821144	-1.9775007e-17	0.21495335
5.975220784467296e-10	-1.1950559e-08	-1.5670704e-08	0.9463908	-1.9663125e-17	0.21537487
6.000402123629332e-10	-9.218062e-09	-2.317684e-08	0.953837	-1.951286e-17	0.21270572
6.02508996309276e-10	-1.777769e-09	-3.0880507e-08	0.9581306	-1.9313918e-17	0.20825553
6.050271530079546e-10	9.6295825e-09	-3.63455e-08	0.9545368	-1.9077707e-17	0.2039072
6.075453104528586e-10	2.4954609e-08	-3.318502e-08	0.9359746	-1.8946516e-17	0.21215527
6.100140984071352e-10	3.713562e-08	-1.8699497e-08	0.9025502	-1.9060468e-17	0.23097537
6.125322422579007e-10	4.114383e-08	-3.1604783e-09	0.865515	-1.9351432e-17	0.24110459
6.150010682026583e-10	3.8847546e-08	1.1654263e-08	0.83543986	-1.9632136e-17	0.21131833
6.175194752232892e-10	2.9399033e-08	2.515214e-08	0.81025094	-1.9829308e-17	0.20263496
6.20037874377524e-10	1.4337378e-08	2.987434e-08	0.790179	-1.9943634e-17	0.20390192
6.225063279308697e-10	3.5226164e-09	2.8987511e-08	0.775492	-2.0002769e-17	0.20765331
6.250242691077647e-10	-4.032902e-09	2.3637744e-08	0.76536566	-2.0031074e-17	0.21117847
6.275423407771309e-10	-7.720127e-09	1.7316788e-08	0.7595241	-2.004208e-17	0.21242939
6.300110298035793e-10	-9.2016e-09	1.1950559e-08	0.7573537	-2.0045468e-17	0.21275963
6.325290513991429e-10	-8.609011e-09	7.637823e-09	0.75820243	-2.004696e-17	0.2125402
6.350471079045074e-10	-7.654283e-09	4.8065605e-09	0.7614151	-2.0049442e-17	0.21195649
6.375157955130009e-10	-5.530837e-09	2.5678886e-09	0.7663109	-2.0054183e-17	0.21259302
6.400338858088652e-10	-4.329197e-09	9.218062e-10	0.7727455	-2.0061838e-17	0.213146
6.425026216625224e-10	-3.0123308e-09	9.876495e-11	0.78015023	-2.0072042e-17	0.21357219
6.450207262589497e-10	-1.4650133e-09	-1.3168659e-10	0.7884443	-2.0084779e-17	0.21384563
6.475388374546788e-10	-5.2674637e-10	-3.9094457e-11	0.797126	-2.0099212e-17	0.21534225
6.500075648229514e-10	1.2757139e-09	4.176934e-10	0.8057313	-2.0114237e-17	0.21586686
6.52525666179358e-10	2.7654186e-09	1.1728337e-09	0.8143716	-2.0129639e-17	0.21647434
6.550437493644914e-10	3.555538e-09	2.8600682e-09	0.822667	-2.0144334e-17	0.2184862
6.575124604849321e-10	3.2921648e-09	4.016441e-09	0.830292	-2.0157412e-17	0.21933293
6.600305411493477e-10	2.3045155e-09	3.753068e-09	0.8374239	-2.0168946e-17	0.22008419
6.625486014432346e-10	1.9752988e-09	3.917676e-09	0.8438448	-2.017841e-17	0.22161743
6.650172834443709e-10	2.2057505e-09	5.3991505e-09	0.84946	-2.0185588e-17	0.22139117
6.675353159362739e-10	1.218101e-09	5.79421e-09	0.8545576	-2.019079e-17	0.22285841
6.700039789066993e-10	6.58433e-10	6.288035e-09	0.85902685	-2.0193881e-17	0.22278558
6.725220130117608e-10	2.9629485e-10	5.4979155e-09	0.8631467	-2.0195103e-17	0.22331937
6.750400558570843e-10	2.9629485e-10	5.7283667e-09	0.8669217	-2.0194496e-17	0.2237955
6.775087030319217e-10	-2.9629485e-10	5.79421e-09	0.87037474	-2.0192218e-17	0.22298431
6.800267302136428e-10	-7.2427625e-10	5.8600533e-09	0.8737231	-2.0188263e-17	0.22092219
6.825447684381088e-10	-9.547279e-10	5.135777e-09	0.87696606	-2.0182681e-17	0.21930005
6.850134097267797e-10	-6.58433e-10	5.79421e-09	0.8801044	-2.0175592e-17	0.21844468
6.87531443228611e-10	-1.975299e-10	5.9258967e-09	0.88332117	-2.0166607e-17	0.21632916
6.900000997377811e-10	-7.2427625e-10	6.847703e-09	0.8865441	-2.0155887e-17	0.21624304
6.925181369313612e-10	-1.8436124e-09	7.111076e-09	0.8899589	-2.0142702e-17	0.21513881
6.950361772252679e-10	-2.633732e-09	7.5719795e-09	0.8935639	-2.0126813e-17	0.21440355
6.975048475258077e-10	-3.8847547e-09	7.4073707e-09	0.8973493	-2.0108034e-17	0.2141137
7.000228837420549e-10	-5.135777e-09	7.506136e-09	0.901544	-2.008483e-17	0.21347232
7.02540946558064e-10	-6.9793895e-09	7.901195e-09	0.9061651	-2.0056471e-17	0.21337242
7.050096307200335e-10	-9.5472785e-09	6.716016e-09	0.911207	-2.002229e-17	0.21380267
7.075277080549459e-10	-1.1357969e-08	5.3991505e-09	0.91697574	-1.9979097e-17	0.21354574
7.10045779124102e-10	-1.27736e-08	3.9505976e-09	0.9234687	-1.9925049e-17	0.21345937
7.12514496818186e-10	-1.580239e-08	1.3004051e-09	0.9305756	-1.9858362e-17	0.21396385
7.150325980160108e-10	-1.8929947e-08	-4.0822843e-09	0.93848485	-1.9771728e-17	0.21510921
7.175013335956284e-10	-1.9423773e-08	-1.1851793e-08	0.9465032	-1.9661325e-17	0.21536513
7.200194592002083e-10	-1.7547238e-08	-2.1201542e-08	0.9539268	-1.9510413e-17	0.21258682
7.225376035301997e-10	-1.1522577e-08	-3.1209723e-08	0.95817703	-1.9306187e-17	0.20800948
7.250063769519804e-10	-8.065804e-10	-4.055947e-08	0.9543958	-1.907467e-17	0.20380564
7.275245296318679e-10	1.5967e-08	-4.312736e-08	0.9355907	-1.8946359e-17	0.21240847
7.300426811844554e-10	3.4633576e-08	-3.397514e-08	0.9012616	-1.9068361e-17	0.23237692
7.325114433911685e-10	4.4839286e-08	-1.9621302e-08	0.8650423	-1.9355801e-17	0.24081409
7.350296399368034e-10	4.9119098e-08	-3.555538e-09	0.8345117	-1.9640332e-17	0.21102713
7.375480721028314e-10	4.2666457e-08	1.5436138e-08	0.80949426	-1.9834325e-17	0.20269004
7.400170395605917e-10	3.0254995e-08	2.9301296e-08	0.7899361	-1.9944782e-17	0.2038872
7.425348241909469e-10	1.5028732e-08	3.478172e-08	0.7750755	-2.0004142e-17	0.20792086
7.450033851280027e-10	2.623444e-09	3.2658274e-08	0.7652569	-2.0031318e-17	0.21118045
7.475214378086249e-10	-5.168699e-09	2.5020453e-08	0.75946987	-2.0042161e-17	0.21244523
7.500394760405162e-10	-9.415592e-09	1.8008143e-08	0.757336	-2.0045526e-17	0.21275681
7.525081058171535e-10	-9.97526e-09	1.139089e-08	0.7582325	-2.0046982e-17	0.21253566
7.550261364436722e-10	-9.053453e-09	7.473214e-09	0.7614732	-2.0049493e-17	0.21194258
7.575441678389996e-10	-7.522597e-09	5.0040905e-09	0.7665043	-2.005439e-17	0.2126416
7.600128648216771e-10	-6.4361823e-09	3.2921648e-09	0.77284336	-2.0061965e-17	0.21313924
7.625309530762302e-10	-4.411501e-09	1.8106907e-09	0.78041774	-2.0072433e-17	0.21363938
7.65049055045715e-10	-3.4238514e-09	1.9094557e-09	0.78873014	-2.0085237e-17	0.21378693
7.675177587814876e-10	-2.7654186e-09	2.1213886e-09	0.7972473	-2.0099417e-17	0.2153509
7.700358549188923e-10	-2.0411421e-09	1.4958774e-09	0.80602354	-2.0114753e-17	0.21596536
7.725045524060465e-10	-1.3497876e-09	1.09876e-09	0.814489	-2.0129852e-17	0.2164488
7.750226173145818e-10	9.0534535e-10	1.6131608e-09	0.82277817	-2.014453e-17	0.21849225
7.775406925200332e-10	1.637852e-09	1.9423774e-09	0.83054125	-2.0157829e-17	0.21942551
7.800093744554041e-10	1.5761239e-09	3.1934e-09	0.8375174	-2.016909e-17	0.22006671
7.82527415230193e-10	1.497935e-09	3.9835193e-09	0.8439283	-2.0178523e-17	0.22163425
7.850454512368911e-10	2.4032802e-09	4.8065605e-09	0.84964	-2.01858e-17	0.22133689
7.875141062168179e-10	1.7448474e-09	5.6625233e-09	0.85462373	-2.0190847e-17	0.22287135
7.900321098881562e-10	8.230412e-10	7.242763e-09	0.85917085	-2.0193954e-17	0.22275105
7.925007533706029e-10	-9.547279e-10	6.617251e-09	0.8632007	-2.0195105e-17	0.22333552
7.950187657356695e-10	-2.2386721e-09	4.5431876e-09	0.8669716	-2.0194473e-17	0.22379307
7.975367810699915e-10	-1.6460824e-09	3.0617133e-09	0.8704888	-2.0192114e-17	0.22293553
8.000054203749571e-10	0	3.555538e-09	0.8737681	-2.0188198e-17	0.22088599
8.025234220830626e-10	-4.2798143e-10	5.7283667e-09	0.87701017	-2.018259e-17	0.21929677
8.050414370113086e-10	-1.316866e-09	5.99174e-09	0.88021106	-2.0175322e-17	0.2183946
8.075100802918832e-10	-2.1728288e-09	6.18927e-09	0.8833655	-2.0166471e-17	0.21629165
8.100280800223062e-10	-4.2798143e-09	5.695445e-09	0.8866554	-2.0155485e-17	0.21623084
8.125461004481007e-10	-5.135777e-09	3.6213814e-09	0.8900755	-2.0142218e-17	0.21507458
8.15014749699644e-10	-3.9505976e-09	2.9629483e-09	0.8936148	-2.0126572e-17	0.2144128
8.175327869205534e-10	-3.2592433e-09	4.016441e-09	0.89748305	-2.0107333e-17	0.21406768
8.200014421623954e-10	-3.7201462e-09	4.6748743e-09	0.901604	-2.0084481e-17	0.21349089
8.225194956758268e-10	-5.99174e-09	4.938247e-09	0.9062318	-2.0056043e-17	0.21334738
8.250375359901612e-10	-7.4402924e-09	3.0925773e-09	0.91138834	-2.0020997e-17	0.21382625
8.275062213700365e-10	-9.218062e-09	8.5596286e-10	0.9170595	-1.9978437e-17	0.21358961
8.300242834453388e-10	-1.0139868e-08	-1.2510226e-09	0.9235626	-1.9924222e-17	0.2135297
8.325423646213432e-10	-1.1061674e-08	-4.4773443e-09	0.9308291	-1.9855814e-17	0.21416333
8.350110853361599e-10	-1.0929988e-08	-8.559629e-09	0.9385961	-1.9770386e-17	0.21516728
8.375291881777661e-10	-9.481435e-09	-1.3168659e-08	0.9467707	-1.9657013e-17	0.21532357
8.400473056710682e-10	-5.5966805e-09	-2.0016362e-08	0.9541385	-1.9504538e-17	0.21228829
8.425160713989704e-10	1.7407321e-09	-2.6337318e-08	0.9581934	-1.9303026e-17	0.20790932
8.450342121904107e-10	1.26336825e-08	-3.0419603e-08	0.9540469	-1.9067517e-17	0.2035313
8.475029771179614e-10	2.4987532e-08	-2.6205631e-08	0.9352119	-1.8946253e-17	0.21262042
8.500211228468804e-10	3.469942e-08	-1.3300346e-08	0.90073717	-1.9071628e-17	0.23287334
8.525392476591916e-10	3.775496e-08	1.975299e-10	0.8639211	-1.9366202e-17	0.24001957
8.550080761718858e-10	3.5818754e-08	1.2790061e-08	0.8341361	-1.9643629e-17	0.21089563
8.575264844076681e-10	2.6205631e-08	2.3847619e-08	0.8091886	-1.9836335e-17	0.20270573
8.600448050209532e-10	1.2263314e-08	3.011302e-08	0.7893604	-1.9947477e-17	0.20384127
8.625132047873856e-10	5.1028554e-10	2.8460764e-08	0.77490795	-2.0004688e-17	0.20802593
8.650311318426282e-10	-7.7942e-09	2.2386722e-08	0.76500016	-2.0031889e-17	0.2111796
8.675491618111458e-10	-1.0312706e-08	1.4683056e-08	0.75934315	-2.0042351e-17	0.21248084