# t (s)	mx ()	my ()	mz ()	E_total (J)	MaxAngle (rad)
0	1.2304466e-09	8.5596286e-10	0.97953635	-2.072577e-17	0.2662738
2.5180251251783587e-12	3.9423673e-09	-1.6460824e-11	0.9727544	-2.0697396e-17	0.24544206
5.045343734013389e-12	8.592551e-09	1.8106907e-09	0.96664745	-2.0640133e-17	0.23372002
7.519527467706999e-12	1.1769489e-08	9.38267e-09	0.962086	-2.056034e-17	0.22956492
1.0042234530996247e-11	1.0008181e-08	2.0707716e-08	0.9595957	-2.0460523e-17	0.22961442
1.251426356566047e-11	1.1851794e-09	3.094635e-08	0.95954037	-2.0349842e-17	0.22873259
1.5034849398958557e-11	-1.3827092e-08	3.753068e-08	0.9617527	-2.0224321e-17	0.22697785
1.7505396664811115e-11	-3.3580083e-08	3.5818754e-08	0.9656374	-2.0082968e-17	0.22567633
2.002497015386503e-11	-5.7217825e-08	2.057603e-08	0.97019255	-1.9906173e-17	0.22391741
2.2544292009976037e-11	-7.614777e-08	-1.0139868e-08	0.9725452	-1.9677255e-17	0.21654953
2.501403718268503e-11	-7.882883e-08	-5.372813e-08	0.96645033	-1.943246e-17	0.20372994
2.753303240069068e-11	-5.2740482e-08	-9.362917e-08	0.94336396	-1.9349695e-17	0.2134484
3.00025171137371e-11	-1.3695406e-08	-1.12493275e-07	0.906096	-1.9495724e-17	0.23084308
3.25212490466195e-11	3.63455e-08	-9.5801994e-08	0.86886317	-1.9714445e-17	0.242671
3.503997663849337e-11	8.2172434e-08	-5.593388e-08	0.8409252	-1.9898222e-17	0.21476519
3.75093268020592e-11	1.0676491e-07	-2.2123348e-08	0.8201356	-2.0017028e-17	0.20533223
4.002770915349493e-11	1.10945955e-07	6.728362e-09	0.8044533	-2.0081689e-17	0.20628424
4.254574507178496e-11	9.922585e-08	3.118709e-08	0.7937915	-2.0109828e-17	0.21016261
4.501455493744273e-11	7.6625135e-08	4.938247e-08	0.7876054	-2.0118387e-17	0.21237963
4.7532812974064584e-11	5.2049128e-08	5.8987364e-08	0.7848389	-2.0118758e-17	0.21389337
5.0001670053048433e-11	2.9827014e-08	5.971987e-08	0.78496724	-2.0117094e-17	0.21414933
5.251981338130372e-11	1.3102816e-08	5.3662287e-08	0.78739613	-2.0116386e-17	0.21395542
5.5037974558404756e-11	2.9794092e-09	4.4855746e-08	0.7914676	-2.0117823e-17	0.21399668
5.7506760022036564e-11	-1.316866e-09	3.6226158e-08	0.7965856	-2.0121496e-17	0.21542007
6.002494372877487e-11	-3.2592433e-09	2.9248827e-08	0.80264556	-2.0127245e-17	0.21506426
6.254312449068186e-11	-3.555538e-09	2.2228285e-08	0.8092324	-2.013447e-17	0.21732987
6.501194132039319e-11	-2.3703588e-09	1.686e-08	0.81585765	-2.014235e-17	0.2174512
6.753011247922205e-11	4.4444226e-10	1.2598703e-08	0.82248676	-2.0150537e-17	0.21961302
7.004828763071083e-11	3.5843446e-09	9.226292e-09	0.82877886	-2.0158287e-17	0.22023375
7.251706880348498e-11	7.111076e-09	7.308606e-09	0.8344983	-2.0165049e-17	0.22189467
7.503523029938672e-11	1.06995355e-08	5.892975e-09	0.83980477	-2.0170791e-17	0.22225325
7.750400217958511e-11	1.3530798e-08	6.6830945e-09	0.84446454	-2.0175144e-17	0.22391123
8.002214434155202e-11	1.557194e-08	8.559629e-09	0.8486777	-2.0178247e-17	0.22376569
8.254027537095286e-11	1.5901156e-08	1.0666614e-08	0.85239446	-2.018004e-17	0.2250583
8.500902399969996e-11	1.5555479e-08	1.3234502e-08	0.8556249	-2.0180586e-17	0.22583503
8.752714279705988e-11	1.4255074e-08	1.4814741e-08	0.85857373	-2.0179994e-17	0.22568324
9.00452760716639e-11	1.2213931e-08	1.6724197e-08	0.86124265	-2.0178353e-17	0.22626187
9.251401905207694e-11	1.0765379e-08	1.655959e-08	0.8636444	-2.0175822e-17	0.22710787
9.503213496826341e-11	1.0436163e-08	1.698757e-08	0.86592394	-2.0172389e-17	0.227378
9.750087917613234e-11	9.020532e-09	1.8633653e-08	0.8680316	-2.0168242e-17	0.22721453
1.0001899654525338e-10	7.539057e-09	1.955546e-08	0.8700872	-2.0163247e-17	0.22656853
1.0253711369621925e-10	6.090505e-09	2.0279735e-08	0.8720779	-2.015749e-17	0.2254722
1.0500584562232162e-10	4.8065605e-09	2.074064e-08	0.87399226	-2.0151083e-17	0.22397484
1.0752397821724039e-10	2.6008102e-09	2.2123348e-08	0.87593067	-2.0143727e-17	0.22201976
1.1004209060039406e-10	1.3168659e-10	2.2386722e-08	0.8778764	-2.0135457e-17	0.22143134
1.1251082757322107e-10	-2.2715938e-09	2.3506058e-08	0.8798117	-2.0126338e-17	0.22071427
1.1502894808603848e-10	-4.872404e-09	2.3045153e-08	0.8818358	-2.0115853e-17	0.21946329
1.1754705907328788e-10	-6.748938e-09	2.35719e-08	0.8839339	-2.0103956e-17	0.21762712
1.2001579908060053e-10	-8.691315e-09	2.3242684e-08	0.8860878	-2.0090644e-17	0.21761084
1.225339214650206e-10	-1.1654263e-08	2.3440213e-08	0.88841295	-2.007502e-17	0.2169885
1.2500265558597955e-10	-1.48476635e-08	2.3835273e-08	0.8908511	-2.0057224e-17	0.21556613
1.2752078137201362e-10	-1.9226242e-08	2.3703587e-08	0.89353997	-2.0035911e-17	0.21512178
1.3003890159211607e-10	-2.4888767e-08	2.317684e-08	0.8964814	-2.0010526e-17	0.21483986
1.3250766717345705e-10	-3.0814665e-08	2.1333229e-08	0.8996667	-1.9980554e-17	0.21315698
1.350257937270259e-10	-3.8123268e-08	1.8897026e-08	0.9032917	-1.99432e-17	0.21393493
1.3754392602723353e-10	-4.5859856e-08	1.4222152e-08	0.90737504	-1.9896782e-17	0.21253623
1.4001268117862958e-10	-5.609849e-08	7.547288e-09	0.9119027	-1.9839479e-17	0.21359776
1.4253081993945545e-10	-6.663342e-08	-3.2263217e-09	0.9171224	-1.976473e-17	0.21339579
1.4504897492146268e-10	-7.9242405e-08	-1.9456694e-08	0.92295486	-1.9667414e-17	0.21280478
1.4751774949222203e-10	-8.9612726e-08	-4.4773444e-08	0.9291118	-1.9541627e-17	0.2130747
1.5003592894914489e-10	-9.5538624e-08	-8.177737e-08	0.9352926	-1.936989e-17	0.21282257
1.5250473297615435e-10	-9.040285e-08	-1.2905286e-07	0.939898	-1.9142926e-17	0.21169792
1.550229362139069e-10	-6.6732184e-08	-1.8580978e-07	0.9400168	-1.8842362e-17	0.2090302
1.5754115124066322e-10	-1.2164549e-08	-2.3743092e-07	0.92982775	-1.852263e-17	0.2095867
1.6000999306973563e-10	8.2797946e-08	-2.5125803e-07	0.90458643	-1.8355015e-17	0.22707821
1.6252821185557598e-10	1.8136537e-07	-2.2228697e-07	0.868583	-1.8511437e-17	0.25273952
1.650464266408413e-10	2.582374e-07	-1.7678926e-07	0.8337638	-1.8919219e-17	0.2169622
1.6751535488209277e-10	2.9392447e-07	-6.8658096e-08	0.80205405	-1.9291137e-17	0.20080237
1.7003394239571738e-10	2.6900278e-07	5.9094358e-08	0.7727528	-1.95491e-17	0.20048806
1.7250306295918253e-10	2.0187555e-07	1.5196633e-07	0.74833983	-1.9705687e-17	0.20529774
1.7502099181147255e-10	1.1734099e-07	1.9265748e-07	0.7286971	-1.9799187e-17	0.20972244
1.7753904859011262e-10	4.1201442e-08	1.8804846e-07	0.7144954	-1.9849342e-17	0.2115075
1.8000781915878458e-10	-1.397524e-08	1.5578524e-07	0.7053777	-1.9873105e-17	0.21164231
1.8252593159357793e-10	-4.5448335e-08	1.14567335e-07	0.7005336	-1.9883534e-17	0.21122766
1.8504403624119808e-10	-5.776103e-08	7.7168345e-08	0.699479	-1.9888004e-17	0.21123989
1.875128044372093e-10	-5.7744572e-08	4.9909218e-08	0.7013113	-1.9891285e-17	0.21083981
1.900309328942952e-10	-5.3234306e-08	3.0682976e-08	0.70557857	-1.9896192e-17	0.21120064
1.9254912035424189e-10	-4.6831044e-08	1.777769e-08	0.711908	-1.990403e-17	0.21187203
1.9501793558717268e-10	-4.032902e-08	8.888845e-09	0.71972483	-1.9915098e-17	0.21117221
1.9753614597235175e-10	-3.5851674e-08	1.9752988e-09	0.7289227	-1.9929853e-17	0.2121717
2.000049576160392e-10	-3.0880507e-08	-4.016441e-09	0.7388004	-1.9947416e-17	0.21242487
2.0252316400360468e-10	-2.556366e-08	-8.032882e-09	0.74948865	-1.9967984e-17	0.21195477
2.0504134255155057e-10	-1.9292086e-08	-1.0403241e-08	0.76057124	-1.9990595e-17	0.2128756
2.0751015177101927e-10	-1.3629562e-08	-1.0765379e-08	0.7716027	-2.001403e-17	0.21402334
2.1002833254848585e-10	-9.250983e-09	-9.218062e-09	0.78279525	-2.003842e-17	0.21497068
2.1254650622581596e-10	-5.1028555e-09	-6.5020256e-09	0.79369646	-2.0062462e-17	0.21583821
2.1501528813574648e-10	-2.0740638e-09	-4.152243e-09	0.8038876	-2.0084858e-17	0.21646434
2.1753345980698374e-10	-3.2921648e-11	-6.378569e-11	0.8135805	-2.0105735e-17	0.21812154
2.2000224214540887e-10	1.6460824e-09	3.8312566e-09	0.82223785	-2.0123691e-17	0.2202575
2.2252037813204687e-10	2.5678886e-09	6.716016e-09	0.830099	-2.0139108e-17	0.22137624
2.2503850238933226e-10	3.753068e-09	9.481435e-09	0.83694416	-2.015152e-17	0.22234273
2.275072552064465e-10	4.213971e-09	1.2460844e-08	0.84270567	-2.0160908e-17	0.22384787
2.3002537081940918e-10	3.4403123e-09	1.497935e-08	0.84771	-2.0167883e-17	0.22426635
2.3254347982613834e-10	2.3045155e-10	1.6855884e-08	0.8519649	-2.017251e-17	0.2250535
2.3501221137017497e-10	-2.436202e-09	1.6625432e-08	0.8555446	-2.0175046e-17	0.22595371
2.3753030165683863e-10	-4.312736e-09	1.5604861e-08	0.8587207	-2.0175872e-17	0.22575569
2.4004838755444985e-10	-5.366229e-09	1.5275646e-08	0.8615285	-2.0175182e-17	0.22640583
2.4251710515874483e-10	-6.9793895e-09	1.5209801e-08	0.8640108	-2.0173244e-17	0.22719495
2.450351963746919e-10	-8.543168e-09	1.4551369e-08	0.8663379	-2.0170169e-17	0.22739702
2.475039143062596e-10	-1.0008181e-08	1.3168659e-08	0.8684726	-2.0166212e-17	0.22712666
2.5002200082215714e-10	-1.0864144e-08	1.1325047e-08	0.8705445	-2.0161285e-17	0.22636306
2.5254008584399746e-10	-1.1028752e-08	9.283905e-09	0.8725461	-2.015551e-17	0.22514378
2.5500880281245995e-10	-1.08970655e-08	8.164569e-09	0.8744692	-2.014902e-17	0.22352919
2.5752691105267395e-10	-1.1423812e-08	7.111076e-09	0.8764166	-2.0141515e-17	0.2216638
2.6004500159178843e-10	-1.2839443e-08	6.1234267e-09	0.87837356	-2.0133042e-17	0.22128718
2.6251371559184345e-10	-1.3300346e-08	4.0822843e-09	0.8803231	-2.0123673e-17	0.22044103
2.650318070079155e-10	-1.4320917e-08	2.897105e-09	0.88236636	-2.011287e-17	0.21904731
2.6750053917940006e-10	-1.5209801e-08	1.1193361e-09	0.8844468	-2.0100836e-17	0.21763015
2.7001865275819523e-10	-1.5473175e-08	-2.6337318e-10	0.8866741	-2.0086794e-17	0.21752137
2.725367586448893e-10	-1.659251e-08	-1.9752988e-09	0.8890387	-2.0070566e-17	0.21669817
2.7500547856726806e-10	-1.7909377e-08	-4.1481276e-09	0.8915248	-2.0052038e-17	0.2150338
2.7752359576096995e-10	-1.8897026e-08	-6.913546e-09	0.89427423	-2.0029765e-17	0.21516421
2.8004172100600476e-10	-1.8699497e-08	-1.1061674e-08	0.8972902	-2.0003153e-17	0.21455002
2.8251045973501654e-10	-1.8699497e-08	-1.4419682e-08	0.9005652	-1.9971617e-17	0.21346922
2.850285803238246e-10	-1.9357929e-08	-1.9818833e-08	0.9043009	-1.9932163e-17	0.21382682
2.8754671056525814e-10	-1.8995792e-08	-2.5810573e-08	0.90851635	-1.9882932e-17	0.21294415
2.9001546565712625e-10	-1.6724197e-08	-3.2263216e-08	0.91319335	-1.9821921e-17	0.21334821
2.9253360273035754e-10	-1.2905287e-08	-4.2666457e-08	0.9185753	-1.974201e-17	0.21374507
2.950023752642773e-10	-4.6748743e-09	-5.3991503e-08	0.9244283	-1.9639892e-17	0.21360002
2.975205346836864e-10	8.559629e-09	-6.544824e-08	0.93075687	-1.9502e-17	0.21325952
3.0003870491868515e-10	3.0024545e-08	-7.690497e-08	0.9367331	-1.931631e-17	0.21216094
3.025075105387859e-10	5.985156e-08	-8.3489304e-08	0.94055223	-1.9071547e-17	0.21086602
3.050257022760287e-10	9.9505684e-08	-8.0328824e-08	0.93864983	-1.8756698e-17	0.20864265
3.075439038304262e-10	1.4108572e-07	-5.530837e-08	0.9247022	-1.8455776e-17	0.21200293
3.1001273086153286e-10	1.6513499e-07	2.7654186e-09	0.89568985	-1.8359778e-17	0.23508374
3.1253095300943646e-10	1.6882221e-07	6.136595e-08	0.85928094	-1.8605075e-17	0.24662383
3.1504916621088816e-10	1.5117621e-07	1.1311879e-07	0.82517546	-1.9027556e-17	0.21029885
3.1751816335152706e-10	8.994194e-08	1.5197456e-07	0.79411995	-1.9369394e-17	0.20031707
3.200368002485874e-10	1.3399111e-08	1.6019675e-07	0.7658486	-1.9598263e-17	0.20220922
3.225056936425945e-10	-4.834544e-08	1.3833677e-07	0.74272907	-1.9735214e-17	0.20690346
3.250236367672745e-10	-8.307778e-08	9.771145e-08	0.72451574	-1.9815532e-17	0.2107458
3.2754171247676276e-10	-9.229584e-08	5.412319e-08	0.7116464	-1.9857495e-17	0.21203892
3.300104649691145e-10	-8.341111e-08	1.896287e-08	0.703713	-1.9876758e-17	0.21117562
3.3252856010733644e-10	-6.66828e-08	-4.872404e-09	0.69993424	-1.9885018e-17	0.21128565
3.3504666993862945e-10	-4.9431854e-08	-1.7843533e-08	0.6997135	-1.988884e-17	0.21117818
3.3751541836095077e-10	-3.4403122e-08	-2.2386722e-08	0.70219773	-1.9892329e-17	0.2106264
3.40033562463501e-10	-2.3720048e-08	-2.2123348e-08	0.707033	-1.9897902e-17	0.21150039
3.425023619243219e-10	-1.618099e-08	-2.1859975e-08	0.713683	-1.9906414e-17	0.21176855
3.4502054744588447e-10	-1.0271554e-08	-2.1991662e-08	0.7220013	-1.9918589e-17	0.21174388
3.4753871352195675e-10	-4.510266e-09	-2.0938169e-08	0.7314578	-1.9934207e-17	0.2118142
3.5000751683015164e-10	7.2016104e-10	-1.817275e-08	0.74151486	-1.9952505e-17	0.21265347
3.525256994384045e-10	4.0822843e-09	-1.4748899e-08	0.75232637	-1.9973666e-17	0.21274382
3.550438570954294e-10	5.8271317e-09	-1.1851793e-08	0.7634745	-1.9996686e-17	0.21254584
3.5751265638933253e-10	6.6830945e-09	-8.493785e-09	0.77451265	-2.0020324e-17	0.21372595
3.6003082567450065e-10	6.7818595e-09	-6.716016e-09	0.78565174	-2.0044707e-17	0.21509385
3.625489785761866e-10	6.1563483e-09	-3.3662386e-09	0.7964409	-2.0068515e-17	0.21639246
3.6501775018454265e-10	5.069934e-09	-5.555528e-10	0.8064696	-2.0090475e-17	0.21749099
3.6753588701473045e-10	3.8189114e-09	1.3827093e-09	0.8159508	-2.011073e-17	0.21819314
3.700046472461363e-10	6.58433e-10	2.4032802e-09	0.82436734	-2.0127968e-17	0.22032022
3.725227563003736e-10	-4.2798143e-10	4.1810493e-09	0.8319661	-2.0142604e-17	0.22201353
3.7504085696492806e-10	-1.3827093e-09	5.464994e-09	0.8385522	-2.0154256e-17	0.22200514
3.7750957732999107e-10	-3.9505976e-09	6.3044956e-09	0.84407914	-2.0162954e-17	0.22418916
3.800276514597555e-10	-5.333307e-09	5.530837e-09	0.84887636	-2.016929e-17	0.22402932
3.8254572645429097e-10	-6.3868e-09	3.6872247e-09	0.8529604	-2.017336e-17	0.2253938
3.8501442450964585e-10	-6.650173e-09	1.9094557e-09	0.8564068	-2.0175418e-17	0.22599974
3.87532483786825e-10	-6.2221917e-09	2.6337318e-10	0.85947794	-2.0175828e-17	0.2255575
3.9000116943370227e-10	-5.464994e-09	-3.950598e-10	0.862155	-2.0174816e-17	0.22666483
3.925192376870806e-10	-4.411501e-09	3.950598e-10	0.86462975	-2.017255e-17	0.22729205
3.950372974292366e-10	-5.4979155e-09	-3.2921648e-11	0.8669129	-2.0169214e-17	0.22737642
3.9750599139489724e-10	-5.563759e-09	-2.0411421e-09	0.8690168	-2.0165019e-17	0.22697574
4.0002404349947106e-10	-4.9053255e-09	-3.1934e-09	0.87106735	-2.0159872e-17	0.22608936
4.0254210089202825e-10	-3.8847547e-09	-4.2798143e-09	0.8730558	-2.0153878e-17	0.22476031
4.050107957989964e-10	-2.6008102e-09	-4.3456576e-09	0.8749729	-2.0147168e-17	0.22303498
4.0752885844457224e-10	-1.3827093e-09	-3.8189114e-09	0.8769205	-2.0139424e-17	0.22161148
4.100469201064195e-10	-1.1851794e-09	-3.2921648e-09	0.8788834	-2.0130683e-17	0.22111142
4.1251560685799236e-10	-9.876494e-10	-3.753068e-09	0.88084483	-2.0121011e-17	0.22013608
4.1503368340210687e-10	-1.3168659e-10	-4.213971e-09	0.88290626	-2.0109846e-17	0.21858986
4.1750237129283554e-10	1.2839443e-09	-4.5431876e-09	0.8850109	-2.0097394e-17	0.21766329
4.2002045839465315e-10	2.1728288e-09	-5.3991505e-09	0.8872706	-2.0082829e-17	0.2173824
4.225385188618281e-10	2.7654186e-09	-5.135777e-09	0.8896761	-2.0065959e-17	0.21635082
4.2500722329288917e-10	3.9505976e-09	-4.7407176e-09	0.8922126	-2.0046641e-17	0.2148653
4.275252977314226e-10	4.938247e-09	-5.2016205e-09	0.8950255	-2.0023351e-17	0.215131
4.300433818679339e-10	5.366229e-09	-5.069934e-09	0.8981199	-1.9995427e-17	0.21415521
4.3251209092583575e-10	6.847703e-09	-4.872404e-09	0.90148884	-1.9962212e-17	0.21374702
4.350301868935067e-10	8.625472e-09	-4.016441e-09	0.90534043	-1.9920501e-17	0.2135553
4.3754828143052537e-10	1.05020055e-08	-2.7901097e-09	0.9096933	-1.9868245e-17	0.2133803
4.400170152505441e-10	1.158842e-08	-1.1851794e-09	0.91452307	-1.980322e-17	0.2127949
4.4253513098203944e-10	1.4485526e-08	6.58433e-10	0.9200659	-1.9717711e-17	0.21370067
4.4500387686872783e-10	1.734971e-08	4.4773443e-09	0.92604494	-1.9608007e-17	0.21396469
4.475220113692328e-10	1.9357929e-08	1.0929988e-08	0.9323803	-1.945929e-17	0.21372455
4.5004015479317295e-10	1.919332e-08	1.9621302e-08	0.93803954	-1.9258482e-17	0.21245258
4.525089520525067e-10	1.6296216e-08	2.9366111e-08	0.9408323	-1.8995518e-17	0.210028
4.550271253800723e-10	9.320941e-09	3.8847546e-08	0.93647784	-1.8671333e-17	0.2075923
4.575453180755674e-10	-3.7859897e-09	4.5431875e-08	0.91844946	-1.8403048e-17	0.21593921
4.600141324705849e-10	-2.2847624e-08	4.2666457e-08	0.8863385	-1.8389739e-17	0.24352133
4.625323189546393e-10	-3.8847546e-08	3.6608874e-08	0.8502171	-1.8710683e-17	0.2348341
4.650011622164082e-10	-4.9909218e-08	2.1069855e-08	0.8173886	-1.912176e-17	0.20653641
4.675196027581756e-10	-5.0370122e-08	-3.6872247e-09	0.786432	-1.943911e-17	0.19934991
4.700382581959451e-10	-3.8617095e-08	-2.2287956e-08	0.7592796	-1.964137e-17	0.20274481
4.725069495572111e-10	-2.4320867e-08	-3.2789963e-08	0.7374955	-1.9760708e-17	0.20824343
4.750248640200924e-10	-1.0765379e-08	-3.469942e-08	0.72070354	-1.982931e-17	0.2108663
4.775429441307482e-10	1.2345618e-09	-3.1473096e-08	0.70912397	-1.9864157e-17	0.21213716
4.800116704763547e-10	8.296255e-09	-2.4230333e-08	0.7023462	-1.9879648e-17	0.21088538
4.825297212373647e-10	1.3168659e-08	-1.659251e-08	0.6995734	-1.9886224e-17	0.21129872
4.850477848741871e-10	1.4798281e-08	-1.0929988e-08	0.7001307	-1.9889669e-17	0.2110883
4.875165162410509e-10	1.4946428e-08	-6.716016e-09	0.70323694	-1.9893513e-17	0.21053028
4.900346355124593e-10	1.4913507e-08	-1.777769e-09	0.70861566	-1.9899825e-17	0.21172912
4.925034074961663e-10	1.2263314e-08	1.316866e-09	0.7156986	-1.9909217e-17	0.21149871
4.95021573085006e-10	1.0995831e-08	2.0905246e-09	0.72434765	-1.9922301e-17	0.2121148
4.975397081864426e-10	1.018925e-08	3.0205614e-09	0.7340403	-1.9938755e-17	0.2112467
5.000084760757309e-10	1.0090485e-08	4.1481276e-09	0.74426	-1.9957747e-17	0.21254444
5.025266312057888e-10	8.329177e-09	6.1234267e-09	0.7551795	-1.9979457e-17	0.21315925
5.050447923338486e-10	6.99585e-09	6.551408e-09	0.76637834	-2.0002839e-17	0.21345347
5.075135548729444e-10	5.333307e-09	5.99174e-09	0.7774075	-2.0026622e-17	0.21353506
5.100316777813947e-10	4.2468926e-09	4.59257e-09	0.7884778	-2.0050937e-17	0.2147585
5.125004237142617e-10	3.156363e-09	4.1069756e-09	0.7989367	-2.007401e-17	0.21650653
5.150185368847024e-10	3.2921648e-09	4.199568e-09	0.80899465	-2.0095933e-17	0.21809454
5.175366409491365e-10	2.9876397e-09	3.504098e-09	0.8182545	-2.0115532e-17	0.21926498
5.200053589956612e-10	2.3374371e-09	2.4032802e-09	0.8264247	-2.0132031e-17	0.22005744
5.225234285780737e-10	1.8436124e-09	2.6255014e-09	0.83376074	-2.0145891e-17	0.22236624
5.250415134840575e-10	3.2921648e-11	-5.5966803e-10	0.8400919	-2.0156798e-17	0.22276372
5.275101904617381e-10	1.5802392e-09	-2.897105e-09	0.8453925	-2.0164822e-17	0.2243556
5.300282526271293e-10	4.1481276e-09	-2.6666536e-09	0.8499921	-2.0170546e-17	0.22411354
5.325463000715015e-10	5.3003855e-09	-1.4156308e-09	0.8539152	-2.0174075e-17	0.22566886
5.350149530328134e-10	5.1193165e-09	6.58433e-10	0.8572372	-2.017568e-17	0.22597526
5.375329750983713e-10	6.2221917e-09	2.5678886e-09	0.86021036	-2.0175688e-17	0.22582865
5.400016386125082e-10	4.5431876e-09	3.555538e-09	0.86281496	-2.0174343e-17	0.22689493
5.425196794573952e-10	2.732497e-09	1.9094557e-09	0.8652344	-2.0171787e-17	0.2273452
5.450377171309867e-10	4.3456576e-09	6.58433e-10	0.8674773	-2.0168195e-17	0.22731796
5.475063744807296e-10	6.9793895e-09	1.8436124e-09	0.86955327	-2.0163775e-17	0.22679105
5.500244042941836e-10	7.802431e-09	4.2468926e-09	0.8715846	-2.015841e-17	0.22578925
5.525424459527236e-10	7.242763e-09	6.18927e-09	0.8735619	-2.0152198e-17	0.22434674
5.550111017005646e-10	5.7283667e-09	7.111076e-09	0.8754748	-2.0145264e-17	0.22251134
5.575291415577307e-10	5.267464e-09	6.3868e-09	0.877424	-2.0137269e-17	0.22152793
5.600471744120162e-10	5.9588183e-09	5.99174e-09	0.8793947	-2.012825e-17	0.22090395
5.62515833066606e-10	6.7818595e-09	6.9793895e-09	0.8813693	-2.0118268e-17	0.21979325
5.6503387025002e-10	7.111076e-09	8.559629e-09	0.88345045	-2.010673e-17	0.21809372
5.675025571238896e-10	7.1769195e-09	1.0403241e-08	0.88558114	-2.0093832e-17	0.2176539
5.700206198269554e-10	5.79421e-09	1.2707757e-08	0.8878752	-2.0078722e-17	0.21719576
5.72538669924827e-10	4.839482e-09	1.3563719e-08	0.8903243	-2.0061175e-17	0.21594143
5.750073514084094e-10	3.9505976e-09	1.4419682e-08	0.8929137	-2.004102e-17	0.21503156
5.775254023748051e-10	2.9629483e-09	1.5934077e-08	0.8957936	-2.0016644e-17	0.21501453
5.800434558649388e-10	1.1193361e-09	1.777769e-08	0.89897054	-1.998732e-17	0.21364978
5.825121554131916e-10	-1.3168659e-10	1.9423773e-08	0.9024379	-1.995231e-17	0.21390545
5.850302140823668e-10	-2.897105e-09	2.2386722e-08	0.9064108	-1.990817e-17	0.21310036
5.87548305211716e-10	-7.703666e-09	2.5217982e-08	0.9109061	-1.9852652e-17	0.21359834
5.900170151286212e-10	-1.46501336e-08	2.7259125e-08	0.9158914	-1.9783288e-17	0.21280761
5.925351154874668e-10	-2.4065725e-08	2.7917558e-08	0.9215914	-1.969171e-17	0.2132139
5.950038623342452e-10	-3.578583e-08	2.5678887e-08	0.9276768	-1.9573762e-17	0.21375883
5.975219869106052e-10	-5.0205514e-08	1.896287e-08	0.93396133	-1.9413234e-17	0.21351284
6.000401208480382e-10	-6.5645764e-08	6.4526433e-09	0.939165	-1.919616e-17	0.21219406
6.025088961901124e-10	-8.092141e-08	-1.3300346e-08	0.94064605	-1.8915338e-17	0.20938665
6.050270698529249e-10	-8.991314e-08	-4.3456577e-08	0.93338245	-1.858921e-17	0.2092062
6.07545250544168e-10	-7.891319e-08	-8.184322e-08	0.9111256	-1.8368063e-17	0.221072
6.100140702596441e-10	-4.569525e-08	-1.149624e-07	0.8768414	-1.8444716e-17	0.25015703
6.12532255236889e-10	-1.3695406e-08	-1.3754665e-07	0.8413694	-1.8821752e-17	0.22469665
6.150011276500442e-10	3.410683e-08	-1.3402403e-07	0.809133	-1.9215842e-17	0.20311745
6.175196364635875e-10	8.0987256e-08	-9.843573e-08	0.77901524	-1.9500897e-17	0.2003659
6.200381932752914e-10	1.08061194e-07	-4.9020336e-08	0.75306064	-1.9679045e-17	0.20486018
6.225067346319851e-10	1.07983006e-07	-4.609031e-09	0.7326423	-1.9782613e-17	0.20826994
6.250247137791735e-10	8.8921375e-08	2.7522498e-08	0.7172465	-1.9840844e-17	0.21056965
6.275427617247619e-10	6.264578e-08	4.371995e-08	0.7069193	-1.9869553e-17	0.21193919
6.300114405320491e-10	3.772821e-08	4.71438e-08	0.70126307	-1.988193e-17	0.21111505
6.325294798496127e-10	1.9489615e-08	4.2403084e-08	0.699433	-1.9887227e-17	0.2112791
6.350475392952078e-10	8.526707e-09	3.63455e-08	0.70072025	-1.9890536e-17	0.21096738
6.375162603973363e-10	3.2592433e-09	3.0287918e-08	0.70442235	-1.989486e-17	0.21089876
6.400343597868118e-10	0	2.6732378e-08	0.71031904	-1.9901967e-17	0.21185784
6.425031124435719e-10	-4.5761093e-09	2.2913467e-08	0.7178055	-1.9912246e-17	0.21104108
6.450212272376804e-10	-7.547288e-09	1.8436124e-08	0.7267578	-1.9926232e-17	0.21225546
6.475393558611731e-10	-8.855923e-09	1.3958779e-08	0.736666	-1.994349e-17	0.21201737
6.500081110774362e-10	-8.300371e-09	1.1061674e-08	0.7470328	-1.9963136e-17	0.21208224
6.525262302390015e-10	-7.522597e-09	9.020532e-09	0.7580454	-1.9985345e-17	0.21318573
6.550443579312658e-10	-7.1769195e-09	7.045233e-09	0.76927924	-2.0009032e-17	0.21394308
6.575131018366717e-10	-5.8353624e-09	5.79421e-09	0.7802843	-2.003291e-17	0.21449402
6.600312215848358e-10	-4.0493626e-09	3.571999e-09	0.79127103	-2.0057107e-17	0.21498995
6.625493324550498e-10	-1.8436124e-09	2.907393e-09	0.80179363	-2.0080281e-17	0.21616748
6.650180396290943e-10	-1.0699536e-09	1.5102807e-09	0.81146145	-2.0101223e-17	0.2182829
6.675361243760739e-10	1.0205711e-09	7.2839146e-10	0.820491	-2.012014e-17	0.21996048
6.700048403162264e-10	3.4238514e-09	7.407371e-10	0.82841086	-2.0135889e-17	0.22057565
6.725228868216562e-10	6.814781e-09	2.633732e-09	0.83548486	-2.0148973e-17	0.22245784
6.750409428273949e-10	8.263334e-09	4.213971e-09	0.84156656	-2.0159148e-17	0.22344314
6.775095984434835e-10	9.053453e-09	5.695445e-09	0.846649	-2.016652e-17	0.2243698
6.800276331256899e-10	8.296255e-09	6.7818595e-09	0.8510609	-2.0171653e-17	0.22466724
6.825456693111165e-10	7.012311e-09	7.637823e-09	0.8548326	-2.0174664e-17	0.22586058
6.850143083556345e-10	6.5843295e-09	8.559629e-09	0.85803825	-2.0175828e-17	0.22588426
6.875323004281926e-10	5.99174e-09	9.283905e-09	0.86092055	-2.0175458e-17	0.22614281
6.900009329011889e-10	6.3868e-09	1.0534928e-08	0.86345786	-2.0173792e-17	0.22707531
6.925189475046972e-10	5.432072e-09	1.1818872e-08	0.8658263	-2.0170955e-17	0.22738725
6.950369699780021e-10	4.411501e-09	1.2510227e-08	0.86803234	-2.0167118e-17	0.22722565
6.975055996425448e-10	2.5514277e-09	1.3036973e-08	0.87008286	-2.0162473e-17	0.22657649
7.000235999309802e-10	1.0534927e-09	1.2246853e-08	0.87209755	-2.0156891e-17	0.22545913
7.025416193928165e-10	6.255113e-10	1.1720107e-08	0.8740655	-2.0150459e-17	0.22390504
7.050102641095179e-10	1.3168659e-10	1.2049323e-08	0.8759756	-2.01433e-17	0.22196156
7.075282907447239e-10	-6.5843296e-11	1.2905287e-08	0.8779282	-2.0135052e-17	0.22141452
7.100463151622313e-10	-1.7119257e-09	1.3827092e-08	0.879908	-2.0125744e-17	0.220662
7.125149588525156e-10	-3.9505976e-09	1.3827092e-08	0.88189745	-2.011544e-17	0.21941319
7.15032981162887e-10	-5.563759e-09	1.4156309e-08	0.88399994	-2.0103506e-17	0.21757688
7.175016267662245e-10	-6.913546e-09	1.3168659e-08	0.8861586	-2.0090149e-17	0.21760365
7.2001966488821e-10	-8.691315e-09	1.3234502e-08	0.888489	-2.0074462e-17	0.21695611
7.225376983956697e-10	-9.678964e-09	1.2707757e-08	0.89098394	-2.0056195e-17	0.21546717
7.250063683912181e-10	-1.1621342e-08	1.27736e-08	0.8936296	-2.0035155e-17	0.21513295
7.275244116891365e-10	-1.3827092e-08	1.198348e-08	0.89658004	-2.0009626e-17	0.21481079
7.300424634199802e-10	-1.7646004e-08	1.1522577e-08	0.89984375	-1.9978802e-17	0.21316741
7.325111432864334e-10	-2.278178e-08	1.0074024e-08	0.9034148	-1.9941862e-17	0.21392931
7.35029212509787e-10	-2.7292046e-08	6.847703e-09	0.907514	-1.9895113e-17	0.21244381
7.375472860602714e-10	-3.272412e-08	2.057603e-09	0.9121566	-1.983607e-17	0.21357022
7.400159945870822e-10	-3.8287876e-08	-4.6748743e-09	0.91729945	-1.9762008e-17	0.21345854
7.425340791586966e-10	-4.431254e-08	-1.4353839e-08	0.9231498	-1.9663845e-17	0.21293372
7.450028180162129e-10	-4.8855725e-08	-2.8444305e-08	0.92931485	-1.9536904e-17	0.21293908
7.47520941992679e-10	-5.1061477e-08	-4.9250787e-08	0.93547565	-1.9363516e-17	0.21268792
7.500390810593605e-10	-4.6518288e-08	-7.61807e-08	0.94005376	-1.912912e-17	0.21154498
7.525078628470782e-10	-3.135787e-08	-1.0600771e-07	0.9398879	-1.8831895e-17	0.20898911
7.550260279158758e-10	1.0720111e-09	-1.3234502e-07	0.92925847	-1.8513783e-17	0.21014118
7.575442011989339e-10	5.6427705e-08	-1.3682236e-07	0.9028712	-1.8354018e-17	0.22784527
7.600130099377483e-10	1.1008999e-07	-1.1627926e-07	0.8674285	-1.8522063e-17	0.2525936
7.625311859882441e-10	1.5025441e-07	-8.730821e-08	0.832701	-1.8932786e-17	0.21634415
7.650001249278226e-10	1.6473993e-07	-2.5934028e-08	0.8010681	-1.9301212e-17	0.20033355
7.675187130203617e-10	1.4541492e-07	4.3259046e-08	0.7718882	-1.955548e-17	0.20081134
7.700371136132038e-10	1.0412295e-07	9.125881e-08	0.74719733	-1.9711888e-17	0.20524892
7.725055992805476e-10	5.7972965e-08	1.0969493e-07	0.7281647	-1.9801339e-17	0.2099036
7.750235868658081e-10	1.637852e-08	1.0284723e-07	0.71412885	-1.9850429e-17	0.21160088
7.775416333301492e-10	-1.1835333e-08	8.332469e-08	0.7050238	-1.98739e-17	0.21155605
7.80010262993063e-10	-2.696283e-08	6.1300106e-08	0.700447	-1.9883734e-17	0.21123818
7.825282848626642e-10	-3.1851695e-08	4.0427786e-08	0.6994973	-1.9888109e-17	0.21123505
7.850463322920766e-10	-3.1654164e-08	2.515214e-08	0.7014739	-1.9891485e-17	0.21080308
7.87515035793439e-10	-2.8411383e-08	1.5934077e-08	0.70574826	-1.9896385e-17	0.21124044
7.900331396925105e-10	-2.5119219e-08	9.876494e-09	0.7121362	-1.9904335e-17	0.21186693
7.92501865522273e-10	-2.2617172e-08	4.4773443e-09	0.7199971	-1.9915506e-17	0.2112521
7.950199833562897e-10	-1.8831184e-08	3.950598e-10	0.72922736	-1.9930371e-17	0.21214396
7.975380844546947e-10	-1.5275646e-08	-2.7654186e-09	0.73933214	-1.9948405e-17	0.21249667
8.000068313937293e-10	-1.12098215e-08	-4.0658237e-09	0.749831	-1.9968663e-17	0.21207005
8.025249535232228e-10	-8.79008e-09	-4.411501e-09	0.7609221	-1.9991329e-17	0.21280733
8.050430651946394e-10	-6.674864e-09	-4.1810493e-09	0.7721757	-2.0015264e-17	0.21400118
8.075117888848756e-10	-4.7407176e-09	-3.9012154e-09	0.78314143	-2.003918e-17	0.21501175
8.100298682484198e-10	-2.3045155e-09	-2.8312617e-09	0.7940295	-2.0063195e-17	0.21593031
8.125479519081173e-10	-4.2798143e-10	-1.176949e-09	0.80439854	-2.0085974e-17	0.21669984
8.150166619956828e-10	6.9135464e-10	7.1604583e-10	0.8138691	-2.0106347e-17	0.21807636
8.175347273847541e-10	1.4156308e-09	2.4567781e-09	0.82266074	-2.0124545e-17	0.22029787
8.200034026782195e-10	1.5143958e-09	3.6378422e-09	0.83032686	-2.0139537e-17	0.2214696
8.225214612329064e-10	3.2921648e-09	5.267464e-09	0.83714074	-2.0151862e-17	0.2223138
8.250394868917305e-10	4.888865e-09	7.851813e-09	0.8429791	-2.0161321e-17	0.22393028
8.275081270086619e-10	3.1975151e-09	1.06172315e-08	0.8478523	-2.0168058e-17	0.22424437
8.300261336171301e-10	7.901196e-10	1.1325047e-08	0.85208607	-2.0172616e-17	0.22510132
8.325441362078281e-10	-2.1399071e-09	1.0765379e-08	0.8557154	-2.0175132e-17	0.22596915
8.350127679134294e-10	-3.4238514e-09	9.876494e-09	0.8588124	-2.0175875e-17	0.22573572
8.375307609851614e-10	-3.3250864e-09	8.493785e-09	0.8616101	-2.0175137e-17	0.22644193
8.40048758808475e-10	-3.2263217e-09	8.230412e-09	0.86413246	-2.0173117e-17	0.22721797
8.425173783967742e-10	-3.555538e-09	8.559629e-09	0.8664067	-2.017006e-17	0.22739756
8.450353776291954e-10	-5.037012e-09	9.218062e-09	0.86857903	-2.0165983e-17	0.22710179
8.475039990987098e-10	-5.99174e-09	8.559629e-09	0.87060684	-2.0161121e-17	0.22633173
8.500219966512472e-10	-6.7818595e-09	7.5719795e-09	0.8726066	-2.0155318e-17	0.22510132
8.525399949256008e-10	-6.913546e-09	6.650173e-09	0.8745672	-2.0148666e-17	0.22343642
8.550086156653631e-10	-7.143998e-09	5.3991505e-09	0.87647617	-2.0141272e-17	0.22165918
8.575266229387883e-10	-7.736587e-09	5.135777e-09	0.8784337	-2.0132769e-17	0.22126791
8.600446277040969e-10	-8.230412e-09	4.5431876e-09	0.88042384	-2.0123165e-17	0.22038569
8.625132619972381e-10	-8.362099e-09	4.3456576e-09	0.8824297	-2.0112518e-17	0.21899574
8.650312708833624e-10	-9.283905e-09	3.8847547e-09	0.8845554	-2.010018e-17	0.21764065