# t (s)	mx ()	my ()	mz ()	E_total (J)	MaxAngle (rad)
0	1.4074005e-09	6.58433e-10	0.9795362	-2.0725771e-17	0.26627335
2.5168748894295284e-12	1.5473175e-09	6.255113e-10	0.9720934	-2.0693784e-17	0.24421622
5.0443367184464205e-12	1.3827093e-09	1.4485525e-09	0.96521175	-2.0627358e-17	0.23364769
7.518773346366594e-12	1.2427922e-09	2.8641833e-09	0.9599344	-2.0533334e-17	0.22960682
1.0041609526868329e-11	3.2921648e-11	3.9505976e-09	0.9568595	-2.0414364e-17	0.22715366
1.2513828253706763e-11	-2.0411421e-09	4.3456576e-09	0.95636904	-2.02806e-17	0.22590849
1.503458122575218e-11	-4.6748743e-09	3.5884598e-09	0.9582021	-2.0125508e-17	0.22593404
1.7505301006503828e-11	-7.835352e-09	1.7119257e-09	0.9616199	-1.9945517e-17	0.22341542
2.0025060056034555e-11	-1.0337398e-08	-2.3703588e-09	0.96520436	-1.9713901e-17	0.21879673
2.2544555002131098e-11	-1.1456733e-08	-8.427942e-09	0.96513265	-1.9415646e-17	0.21016718
2.5014410914453565e-11	-9.119296e-09	-1.5934077e-08	0.9539488	-1.9128143e-17	0.20543455
2.7533426034835798e-11	-1.2839443e-09	-2.0938169e-08	0.9238221	-1.9061568e-17	0.22143596
3.0002906623823775e-11	7.506136e-09	-1.9621302e-08	0.8832293	-1.9250068e-17	0.24947353
3.252169633382336e-11	1.5835314e-08	-1.3958779e-08	0.8480962	-1.9536722e-17	0.22774127
3.504050371926464e-11	2.1629523e-08	-5.767461e-09	0.8204889	-1.97719e-17	0.20536615
3.7509909594753925e-11	2.376943e-08	2.296285e-09	0.7987716	-1.9913702e-17	0.20241122
4.002816635973374e-11	2.2057504e-08	8.732467e-09	0.7818608	-1.9991495e-17	0.20680682
4.254621093137617e-11	1.657605e-08	1.32674245e-08	0.7700306	-2.0028575e-17	0.21069507
4.5015010544152344e-11	1.1522577e-08	1.5143959e-08	0.7628764	-2.0043256e-17	0.21140781
4.753325645575883e-11	5.9423577e-09	1.5045194e-08	0.7593716	-2.004782e-17	0.21283753
5.000206511114497e-11	2.732497e-09	1.2707757e-08	0.7591283	-2.0048851e-17	0.21281128
5.252021085304549e-11	1.1687186e-09	1.06995355e-08	0.7614609	-2.0050109e-17	0.21229084
5.5038349497773694e-11	-8.230412e-11	9.0369925e-09	0.7657055	-2.0053323e-17	0.21284457
5.750711067649848e-11	-4.609031e-10	7.4402924e-09	0.7713115	-2.005901e-17	0.21367536
6.002527768320457e-11	-3.292165e-10	6.7818595e-09	0.77819777	-2.0067408e-17	0.2136526
6.254344761947706e-11	-3.950598e-10	5.168699e-09	0.7858966	-2.0078052e-17	0.2149268
6.501222892168413e-11	3.7036854e-10	4.469114e-09	0.79385287	-2.0090065e-17	0.2158677
6.753037992434483e-11	7.2427625e-10	4.0822843e-09	0.80205625	-2.010315e-17	0.21611162
7.004852739506719e-11	8.5596286e-10	3.890927e-09	0.81008965	-2.011629e-17	0.21838224
7.251731398984854e-11	1.6625432e-09	2.7448424e-09	0.81759477	-2.012851e-17	0.21937375
7.503545977464304e-11	2.7654186e-09	2.897105e-09	0.8246952	-2.0139717e-17	0.22066633
7.750422479180102e-11	3.3909298e-09	3.9835193e-09	0.8309852	-2.0149114e-17	0.22237515
8.00223631565128e-11	3.571999e-09	3.753068e-09	0.8366505	-2.0156924e-17	0.22302367
8.254049117027328e-11	3.8189114e-09	4.1645887e-09	0.841563	-2.0162951e-17	0.2244373
8.500922629164883e-11	4.016441e-09	4.839482e-09	0.84570676	-2.0167203e-17	0.22536579
8.752733321759942e-11	3.358008e-09	4.609031e-09	0.8493375	-2.0170003e-17	0.22515257
9.004544442084502e-11	2.6995752e-09	5.135777e-09	0.85246474	-2.0171421e-17	0.22667386
9.25141716319935e-11	3.6378422e-09	4.7407176e-09	0.85513246	-2.0171645e-17	0.22734997
9.503227236209336e-11	3.654303e-09	4.2798143e-09	0.8575284	-2.017086e-17	0.22739731
9.75009914995536e-11	3.6213814e-09	4.839482e-09	0.85962516	-2.0169249e-17	0.22752364
1.0001908921971736e-10	3.7695287e-09	6.0575833e-09	0.8615628	-2.0166883e-17	0.2284127
1.0253718574489921e-10	3.1110958e-09	6.4526433e-09	0.8633426	-2.0163906e-17	0.22903626
1.0500590324780623e-10	2.3374371e-09	6.4526433e-09	0.8649691	-2.016047e-17	0.22930965
1.0752400304153738e-10	1.7448474e-09	6.4197216e-09	0.86653537	-2.0156504e-17	0.22934899
1.1004209558759034e-10	1.2839443e-09	6.18927e-09	0.8680305	-2.0152102e-17	0.22916223
1.1251082752602895e-10	3.6213813e-10	6.5843295e-09	0.86944497	-2.0147377e-17	0.22874652
1.1502892967776142e-10	3.2921648e-11	6.551408e-09	0.8708508	-2.0142147e-17	0.22809978
1.1754703501662591e-10	-2.9629485e-10	5.79421e-09	0.8722328	-2.0136483e-17	0.22723067
1.2001575965498322e-10	-6.9135464e-10	5.99174e-09	0.8735764	-2.0130482e-17	0.226167
1.225338754543412e-10	-1.0534927e-09	5.99174e-09	0.8749462	-2.0123857e-17	0.22485925
1.2500260022222343e-10	-6.58433e-10	5.8600533e-09	0.876299	-2.0116804e-17	0.22334601
1.2752071892925605e-10	-1.4156308e-09	5.9258967e-09	0.8776998	-2.0108977e-17	0.22273459
1.3003882897985602e-10	-1.6460824e-09	5.7283667e-09	0.87913257	-2.0100403e-17	0.22223729
1.3250756794538903e-10	-1.4485525e-09	5.7283667e-09	0.8805802	-2.0091157e-17	0.22147043
1.3502567526080138e-10	-2.0411421e-09	5.6625233e-09	0.88211334	-2.0080701e-17	0.22036605
1.3754379038464974e-10	-3.1275567e-09	5.530837e-09	0.88371855	-2.0069028e-17	0.21888979
1.400125162107094e-10	-3.2921648e-09	5.8600533e-09	0.88537866	-2.0056157e-17	0.21843092
1.425306533209531e-10	-4.5431876e-09	5.99174e-09	0.8871797	-2.0041254e-17	0.21811025
1.4504877654904888e-10	-5.79421e-09	6.3538783e-09	0.8891129	-2.0024158e-17	0.21728371
1.4751752024955518e-10	-7.308606e-09	5.3991505e-09	0.89116335	-2.0004738e-17	0.21585546
1.500356438545754e-10	-8.164569e-09	4.609031e-09	0.89344674	-1.9981519e-17	0.21552238
1.5250439618925478e-10	-8.888845e-09	3.8847547e-09	0.8959123	-1.9954496e-17	0.21528813
1.5502253732479454e-10	-9.678964e-09	3.358008e-09	0.89870673	-1.992131e-17	0.21397114
1.5754067321040388e-10	-1.158842e-08	2.9382572e-09	0.9018404	-1.988068e-17	0.21397002
1.600094379542503e-10	-1.4156309e-08	2.187232e-09	0.9053041	-1.9831228e-17	0.2135179
1.625275816314502e-10	-1.7119257e-08	-8.5596286e-10	0.9093001	-1.9767547e-17	0.2132567
1.6504574952221e-10	-2.1135698e-08	-4.5431876e-09	0.9138098	-1.9685572e-17	0.21279097
1.6751453198364902e-10	-2.396696e-08	-9.876494e-09	0.9187127	-1.9580642e-17	0.2134076
1.7003270476415838e-10	-2.7193282e-08	-1.837028e-08	0.9240209	-1.9438658e-17	0.2129763
1.7250151128190426e-10	-2.913566e-08	-2.976117e-08	0.928971	-1.9251742e-17	0.21167268
1.750197097519576e-10	-2.7390811e-08	-4.5234344e-08	0.9323577	-1.8995536e-17	0.211518
1.775379158496113e-10	-1.9851754e-08	-6.320956e-08	0.9310229	-1.866546e-17	0.20984666
1.8000676528239734e-10	-3.917676e-09	-7.8748585e-08	0.92009515	-1.831689e-17	0.21330401
1.8252499954276382e-10	2.5810573e-08	-8.5727976e-08	0.8949645	-1.8093658e-17	0.23349987
1.8504323508045588e-10	5.7020294e-08	-8.54646e-08	0.86120987	-1.8221237e-17	0.25195482
1.8751208841905846e-10	8.6913154e-08	-7.726711e-08	0.8277201	-1.8644997e-17	0.21388972
1.9003041501313382e-10	1.0646861e-07	-3.9884576e-08	0.793912	-1.9072035e-17	0.19973662
1.9254904663389978e-10	1.0488837e-07	7.967039e-09	0.76194215	-1.9375242e-17	0.20025326
1.9501826282746173e-10	8.526707e-08	4.6156153e-08	0.73439795	-1.956803e-17	0.20568013
1.975362625981729e-10	5.5407135e-08	6.637004e-08	0.71153337	-1.9688867e-17	0.20993765
2.0000493240504903e-10	2.7193282e-08	6.8740405e-08	0.6946606	-1.9756329e-17	0.21179548
2.0252308911799047e-10	5.3003855e-09	5.892975e-08	0.68274826	-1.9791838e-17	0.21148564
2.0504122560655198e-10	-9.345633e-09	4.556356e-08	0.67579716	-1.9808047e-17	0.21155065
2.0750995221880306e-10	-1.6148068e-08	3.2263216e-08	0.67309695	-1.9814827e-17	0.21091811
2.1002810695308412e-10	-1.7102796e-08	2.1596602e-08	0.6736535	-1.981861e-17	0.21096653
2.125462663135549e-10	-1.5275646e-08	1.4090466e-08	0.6769768	-1.9822909e-17	0.2114331
2.1501508958792185e-10	-1.378594e-08	1.0271554e-08	0.6825376	-1.9829559e-17	0.21126346
2.1753332130145372e-10	-1.297113e-08	5.530837e-09	0.6901279	-1.983976e-17	0.21129332
2.2000214935667478e-10	-1.1308586e-08	3.555538e-09	0.69901234	-1.985338e-17	0.21153219
2.2252037020098464e-10	-9.802421e-09	6.255113e-10	0.7091744	-1.9870842e-17	0.2119338
2.2503859131095529e-10	-6.748938e-09	-1.4485525e-09	0.7201685	-1.9891525e-17	0.21137401
2.275074361622162e-10	-4.707796e-09	-1.5802392e-09	0.7315352	-1.9914444e-17	0.21189158
2.300256571985465e-10	-3.736607e-09	-1.4485525e-09	0.7435172	-1.9939915e-17	0.21276273
2.3254385655265375e-10	-2.5514277e-09	-1.5143958e-09	0.75567627	-1.996682e-17	0.21339804
2.350126796533245e-10	-1.0534927e-09	-6.9135464e-10	0.7675644	-1.9993884e-17	0.21394645
2.375308745965473e-10	-3.292165e-10	-3.950598e-10	0.77945405	-2.0021409e-17	0.21457241
2.4004905719096326e-10	1.679004e-09	1.8929949e-09	0.79090244	-2.0048016e-17	0.21524656
2.425178589221899e-10	2.0082205e-09	4.0822843e-09	0.8015024	-2.0072396e-17	0.21678215
2.4503599713476493e-10	1.4156308e-09	4.7592357e-09	0.811488	-2.0094795e-17	0.21896362
2.475047813473e-10	1.0205711e-09	3.9999803e-09	0.8203123	-2.0113798e-17	0.22073169
2.5002291213101554e-10	2.1728288e-09	3.7036854e-09	0.8282268	-2.0129918e-17	0.22144708
2.525410455206179e-10	3.592575e-09	4.2962753e-09	0.8350196	-2.0142755e-17	0.22351064
2.5500977619974463e-10	4.329197e-09	6.3868e-09	0.8406438	-2.0152404e-17	0.22426367
2.5752786954251573e-10	4.016441e-09	7.209841e-09	0.84544003	-2.0159574e-17	0.22560279
2.600459670459639e-10	3.094635e-09	8.164569e-09	0.849436	-2.0164415e-17	0.22530872
2.625146777568652e-10	1.5473175e-09	8.427942e-09	0.85272574	-2.0167226e-17	0.22684936
2.6503275058078834e-10	8.5596286e-10	7.835352e-09	0.8555796	-2.0168437e-17	0.22747712
2.6750145757842415e-10	-3.2921648e-11	7.473214e-09	0.85799867	-2.0168293e-17	0.22740126
2.700195316586496e-10	3.950598e-10	7.802431e-09	0.860172	-2.016704e-17	0.22781493
2.72537609243804e-10	9.876495e-11	6.650173e-09	0.86212	-2.0164896e-17	0.2286537
2.7500630391770546e-10	-9.876495e-11	6.913546e-09	0.86386466	-2.0162082e-17	0.22916093
2.775243875878261e-10	-4.2798143e-10	6.5843295e-09	0.8655174	-2.0158615e-17	0.2293364
2.8004246339830337e-10	-7.571979e-10	6.2221917e-09	0.86707383	-2.0154621e-17	0.22931254
2.825111668432117e-10	-8.230412e-10	6.2551133e-09	0.86853075	-2.0150242e-17	0.2290415
2.8502923397770025e-10	-8.230412e-10	6.3209566e-09	0.86996603	-2.0145339e-17	0.2285306
2.8754731119062673e-10	-1.5143958e-09	6.716016e-09	0.8713663	-2.0139987e-17	0.22779857
2.900160251902908e-10	-1.876534e-09	6.1234267e-09	0.8727188	-2.0134294e-17	0.22686738
2.925341153223148e-10	-2.9300267e-09	5.3991505e-09	0.8740898	-2.012801e-17	0.22569764
2.950028110125607e-10	-3.2921648e-09	4.4773443e-09	0.8754365	-2.0121327e-17	0.22433148
2.9752088471110643e-10	-3.2592433e-09	4.3456576e-09	0.87682354	-2.0113919e-17	0.22291315
3.0003896411972077e-10	-2.99587e-09	4.4773443e-09	0.8782355	-2.0105826e-17	0.22257939
3.0250768753462776e-10	-3.358008e-09	4.5431876e-09	0.87965494	-2.0097126e-17	0.2219908
3.0502575783164106e-10	-3.9505976e-09	4.213971e-09	0.881151	-2.0087335e-17	0.22109511
3.0754383531170004e-10	-5.530837e-09	3.8847547e-09	0.8827097	-2.007645e-17	0.2198561
3.1001255542369246e-10	-6.6830945e-09	3.4896948e-09	0.8843135	-2.0064508e-17	0.21842322
3.1253064480006366e-10	-6.913546e-09	2.0411421e-09	0.88604444	-2.0050762e-17	0.21836187
3.150487419309792e-10	-6.650173e-09	7.2427625e-10	0.8878923	-2.0035085e-17	0.2178644
3.1751745790257697e-10	-7.143998e-09	9.218062e-10	0.88984185	-2.0017407e-17	0.21684173
3.200355577472841e-10	-8.296255e-09	7.2427625e-10	0.89200044	-1.9996426e-17	0.2152845
3.225042727315744e-10	-8.131647e-09	-6.5843296e-11	0.8943183	-1.99722e-17	0.21553715
3.2502236439423994e-10	-9.481435e-09	-1.9752988e-09	0.8969308	-1.994272e-17	0.21493909
3.275404738223696e-10	-1.0074024e-08	-3.9505976e-09	0.89984614	-1.9906968e-17	0.21341352
3.30009211253988e-10	-1.017279e-08	-6.18927e-09	0.903056	-1.9863887e-17	0.21402138
3.3252731255317077e-10	-1.0008181e-08	-8.427942e-09	0.90675384	-1.9808994e-17	0.21277289
3.350454292349163e-10	-1.0205711e-08	-1.1851793e-08	0.9109403	-1.9739085e-17	0.2134864
3.375141850861524e-10	-9.744808e-09	-1.5967e-08	0.915548	-1.9650537e-17	0.21254218
3.4003232578051225e-10	-8.263334e-09	-2.1399071e-08	0.9206983	-1.9531867e-17	0.21297376
3.4250109065094674e-10	-4.938247e-09	-2.8180931e-08	0.9259044	-1.9376769e-17	0.21318743
3.4501925338193676e-10	2.2715938e-09	-3.591752e-08	0.9305636	-1.9163738e-17	0.21199074
3.4753742987398053e-10	1.3036973e-08	-4.411501e-08	0.93264633	-1.8879046e-17	0.21086144
3.5000623897762763e-10	2.8032783e-08	-4.8592355e-08	0.92844594	-1.853552e-17	0.20955375
3.52524441334109e-10	4.8098528e-08	-4.4773444e-08	0.91227114	-1.820513e-17	0.21826638
3.5504265634848807e-10	6.709432e-08	-2.8312618e-08	0.8825971	-1.8091863e-17	0.24712165
3.575114886848142e-10	8.322593e-08	-1.1325047e-08	0.8489498	-1.8358324e-17	0.23596114
3.600297170326238e-10	8.770327e-08	1.4715977e-08	0.8148853	-1.8818366e-17	0.20554847
3.6254813542969553e-10	7.032064e-08	4.5234344e-08	0.7815144	-1.9201135e-17	0.19903937
3.650174297538892e-10	4.1645887e-08	6.363754e-08	0.75137067	-1.945584e-17	0.20256504
3.6753575401837594e-10	1.2115167e-08	6.7090205e-08	0.7251069	-1.962117e-17	0.207775
3.700043138515503e-10	-1.0008181e-08	5.8863908e-08	0.7047537	-1.9718274e-17	0.21068853
3.7252239938647524e-10	-2.3209763e-08	4.3851635e-08	0.6895602	-1.9772806e-17	0.21170218
3.7504051980699754e-10	-2.795048e-08	2.7390811e-08	0.67957103	-1.9799589e-17	0.2117986
3.775092193738167e-10	-2.6238554e-08	1.4748899e-08	0.6743896	-1.9811186e-17	0.21128109
3.80027310198507e-10	-2.1691251e-08	5.79421e-09	0.67295283	-1.9816382e-17	0.21084152
3.825454458683933e-10	-1.7119257e-08	1.0534927e-09	0.6746039	-1.9820037e-17	0.2111435
3.850142006589625e-10	-1.2213931e-08	-1.7119257e-09	0.6787611	-1.9824991e-17	0.21150522
3.8753238672918274e-10	-8.971149e-09	-2.633732e-09	0.6851977	-1.9832972e-17	0.21078654
3.9000120049894864e-10	-6.609021e-09	-3.358008e-09	0.6932235	-1.9844313e-17	0.21171182
3.925193828782352e-10	-3.9012154e-09	-4.4773443e-09	0.7027307	-1.9859558e-17	0.21073613
3.9503757326751804e-10	-1.2839443e-09	-4.213971e-09	0.7132354	-1.9878285e-17	0.21194258
3.975063708969396e-10	6.58433e-10	-3.9505976e-09	0.7242564	-1.9899606e-17	0.21217905
4.0002454787992113e-10	1.4156308e-09	-2.907393e-09	0.7360186	-1.9923838e-17	0.21195988
4.0254271997408004e-10	1.679004e-09	-2.5020452e-09	0.7480923	-1.994993e-17	0.21199812
4.0501150742268764e-10	2.9217964e-09	-1.3497876e-09	0.76002437	-1.9976648e-17	0.21319841
4.075296684397386e-10	3.4896948e-09	1.3168659e-10	0.7720857	-2.0004314e-17	0.21428446
4.1004782862733766e-10	2.8641833e-09	1.4814742e-09	0.78383285	-2.0031591e-17	0.21543121
4.125165976687378e-10	2.3045155e-09	9.629583e-10	0.794848	-2.0057138e-17	0.21659474
4.150347417815911e-10	1.7119257e-09	5.925897e-10	0.80537426	-2.0081168e-17	0.2176975
4.175034904594105e-10	3.358008e-09	1.1810641e-09	0.81482184	-2.010208e-17	0.21860388
4.2002161931559603e-10	3.6872247e-09	2.855953e-09	0.82342774	-2.0120267e-17	0.2211913
4.225397283564316e-10	2.633732e-09	5.2016205e-09	0.83091766	-2.0135131e-17	0.22270031
4.250084480387583e-10	1.4156308e-09	5.267464e-09	0.8371833	-2.0146591e-17	0.22336699
4.275265306778027e-10	-2.6337318e-10	4.938247e-09	0.84255564	-2.0155402e-17	0.22504362
4.300445975265403e-10	-8.888845e-10	4.609031e-09	0.8470318	-2.0161652e-17	0.22558069
4.3251328953157094e-10	-8.888845e-10	3.1275567e-09	0.85069937	-2.0165643e-17	0.22601864
4.3503134386495444e-10	0	2.6995752e-09	0.8538541	-2.0167863e-17	0.2271751
4.375000276664128e-10	8.888845e-10	2.2715938e-09	0.8564995	-2.0168524e-17	0.22751677
4.4001807193558716e-10	1.3497876e-09	3.753068e-09	0.85884833	-2.0167937e-17	0.22723173
4.425361287467656e-10	1.218101e-09	4.3456576e-09	0.86092925	-2.0166327e-17	0.22815196
4.4500478561531053e-10	8.5596286e-10	4.839482e-09	0.86277235	-2.0163945e-17	0.22888026
4.475228359250375e-10	-1.6460824e-10	4.7736393e-09	0.8645007	-2.0160842e-17	0.22926454
4.5004088620471106e-10	-1.6460824e-10	4.609031e-09	0.86611366	-2.0157169e-17	0.22935896
4.525095536014259e-10	6.5843296e-11	4.2798143e-09	0.86761147	-2.0153076e-17	0.22924094
4.550276126735219e-10	6.5843296e-11	4.016441e-09	0.86907655	-2.0148446e-17	0.22887632
4.575456607718093e-10	1.3168659e-10	4.213971e-09	0.87049687	-2.0143373e-17	0.22828053
4.6001433874326444e-10	6.255113e-10	4.510266e-09	0.8718607	-2.0137967e-17	0.22748214
4.6253239082080843e-10	4.2798143e-10	4.2798143e-09	0.8732358	-2.0131988e-17	0.22645281
4.650010631505671e-10	5.2674637e-10	4.609031e-09	0.87457955	-2.0125637e-17	0.22522706
4.67519118850885e-10	6.5843296e-11	5.069934e-09	0.87595683	-2.0118612e-17	0.22374636
4.700371666528146e-10	6.5843296e-11	5.3991505e-09	0.87735194	-2.0110956e-17	0.22281742
4.725058502972013e-10	-1.975299e-10	5.069934e-09	0.87874794	-2.010275e-17	0.22239651
4.750239082477239e-10	-9.876495e-11	5.3991505e-09	0.8802123	-2.0093555e-17	0.22169064
4.775419693572254e-10	-1.0205711e-09	5.79421e-09	0.8817301	-2.0083373e-17	0.22067097
4.800106499942115e-10	-1.2510226e-09	5.9258967e-09	0.8832844	-2.0072257e-17	0.21932252
4.825287160480005e-10	-1.4156308e-09	5.79421e-09	0.8849533	-2.0059532e-17	0.21844578
4.850467722453804e-10	-1.5143958e-09	5.530837e-09	0.8867256	-2.0045103e-17	0.21823142
4.875154629333608e-10	-9.876494e-10	5.8600533e-09	0.88858515	-2.0028938e-17	0.2175592
4.90033529447882e-10	-1.2839443e-09	6.5843295e-09	0.8906329	-2.000989e-17	0.21627972
4.925022285984213e-10	-1.777769e-09	7.111076e-09	0.8928193	-1.9988068e-17	0.21544711
4.95020312967312e-10	-3.1604783e-09	7.242763e-09	0.8952702	-1.9961733e-17	0.21543178
4.975383882252756e-10	-4.2798143e-09	7.967039e-09	0.8979903	-1.9930083e-17	0.21441644
5.00007095521957e-10	-5.0040905e-09	8.032882e-09	0.9009714	-1.989232e-17	0.21379845
5.025251844812986e-10	-6.4526433e-09	7.703666e-09	0.9043949	-1.9844695e-17	0.21381642
5.050432807585742e-10	-8.823002e-09	7.7695095e-09	0.9082704	-1.9784688e-17	0.21289028
5.075120099813488e-10	-1.1160439e-08	6.049353e-09	0.9125608	-1.9709484e-17	0.21326967
5.100301153074308e-10	-1.4748899e-08	4.4773443e-09	0.9174429	-1.9609731e-17	0.21328178
5.125482355378921e-10	-1.9094557e-08	7.901196e-10	0.92270726	-1.9477552e-17	0.21236832
5.150170071745061e-10	-2.436202e-08	-5.9258967e-09	0.92780685	-1.9303985e-17	0.21253793
5.17535152857816e-10	-2.7851714e-08	-1.6065764e-08	0.931808	-1.9065575e-17	0.21186493
5.200039391798112e-10	-2.7621263e-08	-2.9234425e-08	0.9320995	-1.8759366e-17	0.21031226
5.225221181890468e-10	-2.2324993e-08	-4.3061515e-08	0.924045	-1.8400226e-17	0.2109372
5.250403072490388e-10	-7.3579884e-09	-5.412319e-08	0.9023839	-1.8123934e-17	0.22561346
5.275091431720472e-10	7.736587e-09	-6.307788e-08	0.87036866	-1.8146313e-17	0.2550433
5.300273494051397e-10	2.7522498e-08	-7.032064e-08	0.83610624	-1.8528885e-17	0.2209306
5.325456165709454e-10	4.9020336e-08	-5.8995596e-08	0.8021494	-1.8977593e-17	0.20075127
5.350147682232778e-10	6.469104e-08	-3.2493666e-08	0.77013445	-1.9306521e-17	0.19951388
5.375334343379933e-10	6.845234e-08	-1.5802392e-09	0.74087477	-1.952759e-17	0.20452061
5.40002136596708e-10	5.8962673e-08	2.35719e-08	0.7170528	-1.9662748e-17	0.20837255
5.425201084840302e-10	4.1086217e-08	3.674056e-08	0.6983972	-1.9743069e-17	0.21106242
5.450381816781395e-10	2.416449e-08	3.9505977e-08	0.6852053	-1.9785363e-17	0.21092126
5.475068722780673e-10	1.037032e-08	3.4501888e-08	0.67719316	-1.9804987e-17	0.21172203
5.500249200870271e-10	6.090505e-10	2.7127438e-08	0.67344314	-1.9813593e-17	0.21103226
5.525430062465533e-10	-4.609031e-09	2.0279735e-08	0.67324287	-1.981774e-17	0.21088424
5.550117231005405e-10	-6.2057306e-09	1.4485526e-08	0.6758454	-1.9821582e-17	0.21132316
5.575298566869377e-10	-6.090505e-09	1.1325047e-08	0.6809474	-1.9827599e-17	0.21142942
5.600480118469575e-10	-6.246883e-09	8.9546885e-09	0.68810296	-1.9836901e-17	0.21083212
5.625168079179836e-10	-6.0411227e-09	4.872404e-09	0.6966663	-1.9849623e-17	0.21175976
5.650349789714475e-10	-4.8230215e-09	4.213971e-09	0.70658326	-1.9866221e-17	0.21158868
5.675037519245121e-10	-3.1769392e-09	2.2386721e-09	0.7171752	-1.9885731e-17	0.21132003
5.700219066840217e-10	-1.0699536e-09	2.3703588e-09	0.72863376	-1.9908467e-17	0.21227695
5.725400616961198e-10	-3.6213813e-10	3.9505976e-09	0.7405386	-1.9933475e-17	0.21274354
5.750088213524958e-10	-2.0411421e-09	3.2263217e-09	0.75243473	-1.9959559e-17	0.21295375
5.775269676045238e-10	-1.8436124e-09	2.6831144e-09	0.7645884	-1.9987054e-17	0.21316348
5.800451045438186e-10	-2.0411421e-09	1.876534e-09	0.7765552	-2.0014672e-17	0.2135674
5.825138559590731e-10	-1.975299e-10	2.0905246e-09	0.78790915	-2.0041071e-17	0.21527669
5.850319670360227e-10	2.3045155e-10	1.7119257e-09	0.79890424	-2.0066462e-17	0.21703169
5.875007093234266e-10	2.3703588e-09	1.3600756e-09	0.8089205	-2.008911e-17	0.2187267
5.90018804627956e-10	3.4485428e-09	3.0205614e-09	0.8181886	-2.010931e-17	0.22002167
5.925369009536525e-10	2.633732e-09	4.230432e-09	0.826379	-2.0126247e-17	0.22095591
5.950056033819171e-10	1.8106907e-09	3.934137e-09	0.8333182	-2.0139644e-17	0.22334224
5.975236694015524e-10	2.8312617e-09	3.456773e-09	0.8393194	-2.015023e-17	0.22358942
6.00041709701544e-10	3.8847547e-09	3.1275567e-09	0.844337	-2.0158036e-17	0.22547913
6.025103688703385e-10	4.609031e-09	3.358008e-09	0.84844077	-2.0163333e-17	0.22535859
6.050284055935009e-10	6.18927e-09	5.1028555e-09	0.85194844	-2.0166682e-17	0.22657597
6.075464187322362e-10	5.037012e-09	7.3744495e-09	0.85491556	-2.0168278e-17	0.22739623
6.100150689894706e-10	2.7818794e-09	7.637823e-09	0.85741967	-2.0168438e-17	0.22747315
6.125330671867703e-10	1.876534e-09	6.551408e-09	0.85965884	-2.0167443e-17	0.22755404
6.150017245053002e-10	2.4526627e-09	5.530837e-09	0.86161953	-2.0165545e-17	0.2284485
6.175197463361195e-10	3.753068e-09	5.464994e-09	0.86343837	-2.0162848e-17	0.22906722
6.200377578592895e-10	4.0822843e-09	6.18927e-09	0.8651193	-2.0159521e-17	0.22932251
6.225063944559731e-10	3.4238514e-09	6.650173e-09	0.8666668	-2.0155735e-17	0.2293448
6.250244205691089e-10	2.5678886e-09	6.5184866e-09	0.86816907	-2.0151387e-17	0.22913232
6.275424443397262e-10	1.6460824e-09	6.913546e-09	0.8696153	-2.0146591e-17	0.2286779
6.300111043248629e-10	1.679004e-09	6.18927e-09	0.87099546	-2.0141459e-17	0.22801514
6.325291192754074e-10	2.0740638e-09	6.18927e-09	0.87237924	-2.0135775e-17	0.22712085
6.350471355154357e-10	2.1399071e-09	7.111076e-09	0.8737512	-2.0129614e-17	0.22600852
6.375157909671755e-10	1.1193361e-09	7.242763e-09	0.87509614	-2.0123063e-17	0.22469826
6.400338164721569e-10	8.888845e-10	7.4402924e-09	0.87647885	-2.0115812e-17	0.22312604
6.425024707993425e-10	2.3045155e-10	7.308606e-09	0.8778558	-2.0108056e-17	0.2226941
6.450205072965022e-10	-5.925897e-10	7.242763e-09	0.8792932	-2.0099397e-17	0.22216481
6.475385395216057e-10	-5.925897e-10	6.913546e-09	0.88077605	-2.008985e-17	0.22134665
6.500072098838337e-10	-1.316866e-09	7.703666e-09	0.8822869	-2.0079472e-17	0.22022367
6.525252317715924e-10	-1.777769e-09	7.7695095e-09	0.8839011	-2.0067651e-17	0.21870169
6.550432770189102e-10	-2.8312617e-09	7.506136e-09	0.88560647	-2.0054324e-17	0.21841551
6.575119379027112e-10	-3.5226164e-09	7.3744495e-09	0.8873865	-2.0039484e-17	0.21804634
6.600299882847306e-10	-4.6748743e-09	6.913546e-09	0.88933575	-2.002211e-17	0.21715595
6.625480322001419e-10	-5.3003855e-09	7.4402924e-09	0.89144874	-2.0001929e-17	0.2156121
6.650167105774804e-10	-6.814781e-09	7.5719795e-09	0.8937125	-1.9978703e-17	0.21553743
6.675347722197492e-10	-8.032882e-09	6.469104e-09	0.89625865	-1.995053e-17	0.21518598
6.700034654602097e-10	-9.3497485e-09	6.0575833e-09	0.8990349	-1.9917229e-17	0.21374309
6.725215348676419e-10	-1.1720107e-08	6.049353e-09	0.90220994	-1.9875638e-17	0.21400903
6.750396077040528e-10	-1.576947e-08	5.333307e-09	0.90579575	-1.9823795e-17	0.2133029
6.775083106809863e-10	-1.9390852e-08	2.436202e-09	0.9097721	-1.9759508e-17	0.21336849
6.80026406006472e-10	-2.3110998e-08	-1.2510226e-09	0.9143391	-1.9675128e-17	0.21250515
6.825445193319567e-10	-2.6798222e-08	-6.4526433e-09	0.9193918	-1.9564441e-17	0.21334766
6.850132645465171e-10	-3.1078038e-08	-1.4748899e-08	0.9246063	-1.942028e-17	0.21312797
6.87531384797286e-10	-3.3843456e-08	-2.6403162e-08	0.9295497	-1.9222564e-17	0.2116724
6.900001539755702e-10	-3.4172672e-08	-4.2403084e-08	0.932519	-1.8962628e-17	0.2113294
6.925183159802711e-10	-2.9201502e-08	-6.1761014e-08	0.9303776	-1.8625667e-17	0.20954573
6.950365037692192e-10	-1.3300346e-08	-8.046051e-08	0.9176469	-1.8275801e-17	0.21417007
6.97505319608236e-10	1.5637783e-08	-9.0732065e-08	0.8914522	-1.8087171e-17	0.23827653
7.000235257999365e-10	4.8987413e-08	-9.560447e-08	0.8574235	-1.8259683e-17	0.2476732
7.025417201288274e-10	8.322593e-08	-8.638641e-08	0.82330114	-1.8705722e-17	0.21008316
7.05010680237715e-10	1.0607355e-07	-4.7176723e-08	0.79025924	-1.9111684e-17	0.19900018
7.075293218966861e-10	1.0725873e-07	2.534967e-09	0.75862753	-1.9401457e-17	0.2005527
7.100478480019623e-10	8.850162e-08	4.2008022e-08	0.73111373	-1.9587455e-17	0.20557007
7.125163921217797e-10	6.156348e-08	6.2682815e-08	0.7093669	-1.9698587e-17	0.2104196
7.150343788877749e-10	3.4238514e-08	6.5579925e-08	0.69282234	-1.9762486e-17	0.21190773
7.175030639282622e-10	1.1522577e-08	5.9258966e-08	0.6817487	-1.9794348e-17	0.21163721
7.200210936429113e-10	-3.7283767e-09	4.727549e-08	0.67530835	-1.980912e-17	0.21146974
7.225391206962268e-10	-1.2213931e-08	3.5687066e-08	0.6729963	-1.9815396e-17	0.21087912
7.250078137967847e-10	-1.4699516e-08	2.5283827e-08	0.673891	-1.9819011e-17	0.21101347
7.275259021810842e-10	-1.458429e-08	1.738263e-08	0.67749393	-1.9823512e-17	0.21146718
7.300440263113627e-10	-1.3851784e-08	1.1456733e-08	0.6834212	-1.9830676e-17	0.21113439
7.325127901151976e-10	-1.2707757e-08	7.506136e-09	0.69105995	-1.9841108e-17	0.2114558
7.350309294142098e-10	-1.0962909e-08	5.267464e-09	0.7002718	-1.9855447e-17	0.2113223
7.375490771022512e-10	-8.831233e-09	2.633732e-09	0.71055543	-1.9873345e-17	0.21200974
7.40017833455921e-10	-7.127537e-09	1.7119257e-09	0.721416	-1.9893968e-17	0.21169113
7.425359658669709e-10	-4.8230215e-09	5.2674637e-10	0.73306745	-1.9917634e-17	0.211541
7.450047146169155e-10	-3.4403123e-09	5.2674637e-10	0.7448462	-1.9942807e-17	0.21264048
7.475228356911744e-10	-2.716036e-09	7.2427625e-10	0.75701135	-1.9969826e-17	0.21343519
7.50040949105332e-10	-1.6213912e-09	5.925897e-10	0.7691186	-1.9997462e-17	0.21418269
7.525096857354521e-10	-6.58433e-10	1.3827093e-09	0.78073394	-2.0024385e-17	0.21493043
7.550277879386675e-10	-1.876534e-09	1.777769e-09	0.7921213	-2.0050837e-17	0.21575637
7.575458751761445e-10	-2.176944e-09	2.436202e-09	0.8028428	-2.0075444e-17	0.21648932
7.600145840188924e-10	-1.4814742e-09	1.777769e-09	0.81252354	-2.0097068e-17	0.21893343
7.62532662044627e-10	1.679004e-09	2.378589e-09	0.82139707	-2.0116068e-17	0.22097358
7.650013406576379e-10	4.230432e-09	3.8847547e-09	0.8290246	-2.0131477e-17	0.2218768
7.675193821436877e-10	5.79421e-09	5.7777494e-09	0.8356964	-2.0143972e-17	0.22350983
7.7003741358962e-10	4.609031e-09	7.967039e-09	0.8413128	-2.015347e-17	0.22457303
7.72506062787052e-10	1.9259165e-09	8.921766e-09	0.84591323	-2.0160213e-17	0.22562145
7.750240668098639e-10	6.58433e-10	7.703666e-09	0.8498309	-2.0164819e-17	0.2255463
7.775420848493109e-10	8.230412e-10	6.4197216e-09	0.85311943	-2.0167467e-17	0.22696514
7.800106937643383e-10	1.777769e-09	5.9258967e-09	0.8558661	-2.0168481e-17	0.22749907
7.825286960996343e-10	2.633732e-09	6.3868e-09	0.85829365	-2.016819e-17	0.22735022
7.850466943822002e-10	1.7119257e-09	7.473214e-09	0.8604341	-2.0166812e-17	0.22793761
7.875153102294307e-10	3.950598e-10	7.736587e-09	0.8623216	-2.0164614e-17	0.22872864
7.900332999112319e-10	-6.58433e-10	7.3744495e-09	0.864084	-2.016167e-17	0.2292016
7.925019166814595e-10	-1.1522577e-09	6.4526433e-09	0.86569136	-2.0158205e-17	0.22934532
7.950199145075986e-10	-8.5596286e-10	5.530837e-09	0.86723894	-2.0154156e-17	0.22929443
7.975379283793567e-10	-2.3045155e-10	5.892975e-09	0.8687179	-2.014964e-17	0.22898926
8.000065669676917e-10	-2.9629485e-10	6.18927e-09	0.8701201	-2.0144776e-17	0.22846244
8.025245677526986e-10	-6.58433e-10	6.748938e-09	0.8715174	-2.0139376e-17	0.2277051
8.05042570193951e-10	-1.6460824e-09	7.045233e-09	0.8728953	-2.0133517e-17	0.22672927
8.075112033333262e-10	-2.6666536e-09	6.0575833e-09	0.87423915	-2.0127294e-17	0.2255583
8.100292222713386e-10	-2.534967e-09	5.3991505e-09	0.8756137	-2.0120412e-17	0.22413741
8.125472426274952e-10	-2.8312617e-09	5.3991505e-09	0.8770033	-2.011292e-17	0.2228851
8.150158820527172e-10	-3.1604783e-09	6.2551133e-09	0.87839115	-2.01049e-17	0.22252727
8.1753389004387e-10	-4.213971e-09	5.3991505e-09	0.8798442	-2.0095921e-17	0.22189333
8.200025401967389e-10	-4.6748743e-09	5.3991505e-09	0.8813173	-2.0086205e-17	0.22097738
8.225205551457809e-10	-5.2016205e-09	4.3456576e-09	0.8828837	-2.0075187e-17	0.2197
8.250385807232267e-10	-5.037012e-09	3.9505976e-09	0.8845299	-2.0062837e-17	0.21843697
8.275072373193046e-10	-5.6625233e-09	4.016441e-09	0.88623923	-2.0049159e-17	0.2183316
8.300252637052009e-10	-6.650173e-09	3.555538e-09	0.8881012	-2.003325e-17	0.21777919
8.325433033268775e-10	-6.5843295e-09	3.2921648e-09	0.8901084	-2.0014894e-17	0.21666186
8.350119534048578e-10	-6.946468e-09	2.1399071e-09	0.8922468	-1.9993931e-17	0.21533138
8.375300049296172e-10	-8.493785e-09	1.777769e-09	0.89463824	-1.9968714e-17	0.2155154
8.400480434019187e-10	-9.876494e-09	1.5308567e-09	0.89728653	-1.9938522e-17	0.21478227
8.425167343126493e-10	-1.0995831e-08	-4.609031e-10	0.9001834	-1.9902627e-17	0.21354827
8.450347881657208e-10	-1.198348e-08	-1.8436124e-09	0.9035047	-1.985754e-17	0.21398377
8.475034828731889e-10	-1.3432032e-08	-4.213971e-09	0.9071838	-1.9802216e-17	0.21248876
8.500215560654573e-10	-1.48476635e-08	-8.164569e-09	0.91142595	-1.9730379e-17	0.21346895
8.525396482776553e-10	-1.580239e-08	-1.2510227e-08	0.9161856	-1.963713e-17	0.21286291
8.550083648197953e-10	-1.5736548e-08	-1.8699497e-08	0.9212753	-1.9516825e-17	0.21269837
8.575264822725521e-10	-1.5275646e-08	-2.6600691e-08	0.9265639	-1.9352934e-17	0.21306512
8.600446116518487e-10	-1.0074024e-08	-3.63455e-08	0.931033	-1.9131546e-17	0.21202107
8.625133849860586e-10	-2.1892896e-09	-4.7802235e-08	0.93257576	-1.8843588e-17	0.21068424
8.650315380992879e-10	1.2522572e-08	-5.7415356e-08	0.9271591	-1.848894e-17	0.2103591
8.675003484731691e-10	3.3448394e-08	-6.031246e-08	0.9096267	-1.8178058e-17	0.2191548